 TITLE="LINE"
 VARIABLES="time","p"
 zone t="1"
  0.0000000E+00  0.4868601    
  1.0000000E-03  0.9698637    
  2.0000001E-03   1.489012    
  3.0000000E-03   2.014853    
  4.0000002E-03   2.530730    
  5.0000004E-03   3.026858    
  6.0000005E-03   3.497546    
  7.0000007E-03   3.939757    
  8.0000004E-03   4.352089    
  9.0000005E-03   4.734480    
  1.0000001E-02   5.087543    
  1.1000001E-02   5.412344    
  1.2000001E-02   5.710133    
  1.3000001E-02   5.982578    
  1.4000001E-02   6.231323    
  1.5000002E-02   6.458034    
  1.6000001E-02   6.664344    
  1.7000001E-02   6.851651    
  1.8000001E-02   7.021739    
  1.9000001E-02   7.176061    
  2.0000001E-02   7.315958    
  2.1000002E-02   7.442657    
  2.2000002E-02   7.557358    
  2.3000002E-02   7.661160    
  2.4000002E-02   7.754954    
  2.5000002E-02   7.839787    
  2.6000002E-02   7.916296    
  2.7000003E-02   7.985384    
  2.8000003E-02   8.047751    
  2.9000003E-02   8.103849    
  3.0000003E-02   8.154534    
  3.1000003E-02   8.200324    
  3.2000002E-02   8.241704    
  3.3000000E-02   8.279072    
  3.3999998E-02   8.312799    
  3.4999996E-02   8.343275    
  3.5999995E-02   8.370802    
  3.6999993E-02   8.395695    
  3.7999991E-02   8.418164    
  3.8999990E-02   8.438286    
  3.9999988E-02   8.456251    
  4.0999986E-02   8.472312    
  4.1999985E-02   8.486844    
  4.2999983E-02   8.500000    
  4.3999981E-02   8.511921    
  4.4999979E-02   8.522719    
  4.5999978E-02   8.532507    
  4.6999976E-02   8.541339    
  4.7999974E-02   8.549365    
  4.8999973E-02   8.556665    
  4.9999971E-02   8.563289    
  5.0999969E-02   8.569329    
  5.1999968E-02   8.574554    
  5.2999966E-02   8.578945    
  5.3999964E-02   8.582928    
  5.4999962E-02   8.586577    
  5.5999961E-02   8.589926    
  5.6999959E-02   8.593000    
  5.7999957E-02   8.595832    
  5.8999956E-02   8.598418    
  5.9999954E-02   8.600785    
  6.0999952E-02   8.602974    
  6.1999951E-02   8.605007    
  6.2999949E-02   8.606854    
  6.3999951E-02   8.608318    
  6.4999953E-02   8.609503    
  6.5999955E-02   8.610563    
  6.6999957E-02   8.611467    
  6.7999959E-02   8.612324    
  6.8999961E-02   8.613162    
  6.9999963E-02   8.613971    
  7.0999965E-02   8.614764    
  7.1999967E-02   8.615489    
  7.2999969E-02   8.616194    
  7.3999971E-02   8.616898    
  7.4999973E-02   8.617507    
  7.5999975E-02   8.618098    
  7.6999977E-02   8.618696    
  7.7999979E-02   8.619085    
  7.8999981E-02   8.619428    
  7.9999983E-02   8.619804    
  8.0999985E-02   8.620171    
  8.1999987E-02   8.620413    
  8.2999989E-02   8.620696    
  8.3999991E-02   8.620987    
  8.4999993E-02   8.621276    
  8.5999995E-02   8.621590    
  8.6999997E-02   8.621935    
  8.8000000E-02   8.622312    
  8.9000002E-02   8.622712    
  9.0000004E-02   8.623128    
  9.1000006E-02   8.623399    
  9.2000008E-02   8.623671    
  9.3000010E-02   8.623979    
  9.4000012E-02   8.624322    
  9.5000014E-02   8.624658    
  9.6000016E-02   8.624870    
  9.7000018E-02   8.625091    
  9.8000020E-02   8.625326    
  9.9000022E-02   8.625597    
  0.1000000       8.625903    
  0.1010000       8.626239    
  0.1020000       8.626606    
  0.1030000       8.626983    
  0.1040000       8.627162    
  0.1050000       8.627343    
  0.1060000       8.627571    
  0.1070000       8.627836    
  0.1080000       8.628141    
  0.1090000       8.628466    
  0.1100000       8.628694    
  0.1110000       8.628927    
  0.1120000       8.629196    
  0.1130001       8.629490    
  0.1140001       8.629820    
  0.1150001       8.630176    
  0.1160001       8.630541    
  0.1170001       8.630723    
  0.1180001       8.630914    
  0.1190001       8.631137    
  0.1200001       8.631404    
  0.1210001       8.631702    
  0.1220001       8.632014    
  0.1230001       8.632329    
  0.1240001       8.632643    
  0.1250001       8.632833    
  0.1260001       8.633070    
  0.1270001       8.633335    
  0.1280001       8.633627    
  0.1290001       8.633912    
  0.1300001       8.634090    
  0.1310001       8.634309    
  0.1320001       8.634570    
  0.1330001       8.634857    
  0.1340001       8.635171    
  0.1350001       8.635501    
  0.1360001       8.635836    
  0.1370001       8.636193    
  0.1380001       8.636549    
  0.1390001       8.636778    
  0.1400001       8.637047    
  0.1410001       8.637334    
  0.1420001       8.637599    
  0.1430001       8.637701    
  0.1440001       8.637858    
  0.1450001       8.638058    
  0.1460001       8.638301    
  0.1470001       8.638567    
  0.1480001       8.638851    
  0.1490001       8.639148    
  0.1500001       8.639479    
  0.1510001       8.639836    
  0.1520001       8.640223    
  0.1530001       8.640525    
  0.1540001       8.640830    
  0.1550001       8.641099    
  0.1560001       8.641223    
  0.1570001       8.641392    
  0.1580001       8.641611    
  0.1590001       8.641858    
  0.1600001       8.642135    
  0.1610001       8.642413    
  0.1620001       8.642721    
  0.1630002       8.643058    
  0.1640002       8.643427    
  0.1650002       8.643820    
  0.1660002       8.644229    
  0.1670002       8.644489    
  0.1680002       8.644722    
  0.1690002       8.644860    
  0.1700002       8.645049    
  0.1710002       8.645283    
  0.1720002       8.645542    
  0.1730002       8.645817    
  0.1740002       8.646116    
  0.1750002       8.646426    
  0.1760002       8.646771    
  0.1770002       8.647148    
  0.1780002       8.647541    
  0.1790002       8.647943    
  0.1800002       8.648360    
  0.1810002       8.648570    
  0.1820002       8.648641    
  0.1830002       8.648763    
  0.1840002       8.648927    
  0.1850002       8.649130    
  0.1860002       8.649357    
  0.1870002       8.649603    
  0.1880002       8.649887    
  0.1890002       8.650204    
  0.1900002       8.650551    
  0.1910002       8.650920    
  0.1920002       8.651301    
  0.1930002       8.651688    
  0.1940002       8.651919    
  0.1950002       8.652133    
  0.1960002       8.652276    
  0.1970002       8.652465    
  0.1980002       8.652685    
  0.1990002       8.652937    
  0.2000002       8.653207    
  0.2010002       8.653511    
  0.2020002       8.653850    
  0.2030002       8.654203    
  0.2040002       8.654573    
  0.2050002       8.654961    
  0.2060002       8.655335    
  0.2070002       8.655615    
  0.2080002       8.655929    
  0.2090002       8.656229    
  0.2100002       8.656403    
  0.2110002       8.656616    
  0.2120003       8.656856    
  0.2130003       8.657126    
  0.2140003       8.657430    
  0.2150003       8.657762    
  0.2160003       8.658106    
  0.2170003       8.658473    
  0.2180003       8.658855    
  0.2190003       8.659217    
  0.2200003       8.659430    
  0.2210003       8.659677    
  0.2220003       8.659952    
  0.2230003       8.660254    
  0.2240003       8.660431    
  0.2250003       8.660619    
  0.2260003       8.660840    
  0.2270003       8.661104    
  0.2280003       8.661396    
  0.2290003       8.661709    
  0.2300003       8.662050    
  0.2310003       8.662412    
  0.2320003       8.662758    
  0.2330003       8.662960    
  0.2340003       8.663199    
  0.2350003       8.663471    
  0.2360003       8.663766    
  0.2370003       8.664085    
  0.2380003       8.664327    
  0.2390003       8.664590    
  0.2400003       8.664888    
  0.2410003       8.665221    
  0.2420003       8.665577    
  0.2430003       8.665951    
  0.2440003       8.666337    
  0.2450003       8.666631    
  0.2460003       8.666933    
  0.2470003       8.667269    
  0.2480003       8.667632    
  0.2490003       8.668019    
  0.2500003       8.668418    
  0.2510003       8.668825    
  0.2520003       8.669111    
  0.2530003       8.669409    
  0.2540003       8.669738    
  0.2550003       8.670095    
  0.2560003       8.670476    
  0.2570002       8.670869    
  0.2580002       8.671108    
  0.2590002       8.671356    
  0.2600002       8.671639    
  0.2610002       8.671958    
  0.2620002       8.672308    
  0.2630002       8.672680    
  0.2640001       8.673064    
  0.2650001       8.673472    
  0.2660001       8.673877    
  0.2670001       8.674169    
  0.2680001       8.674494    
  0.2690001       8.674845    
  0.2700001       8.675187    
  0.2710001       8.675383    
  0.2720000       8.675620    
  0.2730000       8.675900    
  0.2740000       8.676215    
  0.2750000       8.676563    
  0.2760000       8.676935    
  0.2770000       8.677328    
  0.2780000       8.677743    
  0.2790000       8.678178    
  0.2799999       8.678619    
  0.2809999       8.678991    
  0.2819999       8.679387    
  0.2829999       8.679746    
  0.2839999       8.680120    
  0.2849999       8.680517    
  0.2859999       8.680941    
  0.2869999       8.681392    
  0.2879998       8.681860    
  0.2889998       8.682348    
  0.2899998       8.682850    
  0.2909998       8.683365    
  0.2919998       8.683890    
  0.2929998       8.684425    
  0.2939998       8.684948    
  0.2949997       8.685349    
  0.2959997       8.685773    
  0.2969997       8.686217    
  0.2979997       8.686678    
  0.2989997       8.687153    
  0.2999997       8.687649    
  0.3009997       8.688165    
  0.3019997       8.688699    
  0.3029996       8.689243    
  0.3039996       8.689796    
  0.3049996       8.690357    
  0.3059996       8.690920    
  0.3069996       8.691498    
  0.3079996       8.692059    
  0.3089996       8.692497    
  0.3099996       8.692956    
  0.3109995       8.693430    
  0.3119995       8.693918    
  0.3129995       8.694421    
  0.3139995       8.694943    
  0.3149995       8.695484    
  0.3159995       8.696040    
  0.3169995       8.696605    
  0.3179995       8.697177    
  0.3189994       8.697751    
  0.3199994       8.698330    
  0.3209994       8.698922    
  0.3219994       8.699527    
  0.3229994       8.700049    
  0.3239994       8.700565    
  0.3249994       8.701091    
  0.3259993       8.701628    
  0.3269993       8.702174    
  0.3279993       8.702737    
  0.3289993       8.703315    
  0.3299993       8.703905    
  0.3309993       8.704500    
  0.3319993       8.705095    
  0.3329993       8.705693    
  0.3339992       8.706295    
  0.3349992       8.706908    
  0.3359992       8.707532    
  0.3369992       8.708026    
  0.3379992       8.708507    
  0.3389992       8.709003    
  0.3399992       8.709506    
  0.3409992       8.710028    
  0.3419991       8.710568    
  0.3429991       8.711125    
  0.3439991       8.711695    
  0.3449991       8.712272    
  0.3459991       8.712850    
  0.3469991       8.713429    
  0.3479991       8.714021    
  0.3489991       8.714626    
  0.3499990       8.715242    
  0.3509990       8.715731    
  0.3519990       8.716209    
  0.3529990       8.716694    
  0.3539990       8.717194    
  0.3549990       8.717715    
  0.3559990       8.718255    
  0.3569990       8.718811    
  0.3579989       8.719382    
  0.3589989       8.719957    
  0.3599989       8.720535    
  0.3609989       8.721114    
  0.3619989       8.721707    
  0.3629989       8.722313    
  0.3639989       8.722930    
  0.3649988       8.723466    
  0.3659988       8.723994    
  0.3669988       8.724526    
  0.3679988       8.725068    
  0.3689988       8.725627    
  0.3699988       8.726201    
  0.3709988       8.726790    
  0.3719988       8.727390    
  0.3729987       8.727988    
  0.3739987       8.728579    
  0.3749987       8.729181    
  0.3759987       8.729795    
  0.3769987       8.730419    
  0.3779987       8.731054    
  0.3789987       8.731560    
  0.3799987       8.732051    
  0.3809986       8.732545    
  0.3819986       8.733060    
  0.3829986       8.733594    
  0.3839986       8.734145    
  0.3849986       8.734712    
  0.3859986       8.735293    
  0.3869986       8.735874    
  0.3879986       8.736451    
  0.3889985       8.737041    
  0.3899985       8.737643    
  0.3909985       8.738257    
  0.3919985       8.738883    
  0.3929985       8.739383    
  0.3939985       8.739864    
  0.3949985       8.740354    
  0.3959984       8.740866    
  0.3969984       8.741398    
  0.3979984       8.741948    
  0.3989984       8.742514    
  0.3999984       8.743095    
  0.4009984       8.743670    
  0.4019984       8.744245    
  0.4029984       8.744835    
  0.4039983       8.745438    
  0.4049983       8.746053    
  0.4059983       8.746680    
  0.4069983       8.747225    
  0.4079983       8.747746    
  0.4089983       8.748282    
  0.4099983       8.748836    
  0.4109983       8.749406    
  0.4119982       8.749991    
  0.4129982       8.750590    
  0.4139982       8.751199    
  0.4149982       8.751789    
  0.4159982       8.752388    
  0.4169982       8.753000    
  0.4179982       8.753623    
  0.4189982       8.754257    
  0.4199981       8.754901    
  0.4209981       8.755418    
  0.4219981       8.755905    
  0.4229981       8.756410    
  0.4239981       8.756936    
  0.4249981       8.757481    
  0.4259981       8.758043    
  0.4269980       8.758620    
  0.4279980       8.759202    
  0.4289980       8.759776    
  0.4299980       8.760365    
  0.4309980       8.760967    
  0.4319980       8.761582    
  0.4329980       8.762208    
  0.4339980       8.762845    
  0.4349979       8.763351    
  0.4359979       8.763836    
  0.4369979       8.764343    
  0.4379979       8.764870    
  0.4389979       8.765416    
  0.4399979       8.765979    
  0.4409979       8.766558    
  0.4419979       8.767137    
  0.4429978       8.767721    
  0.4439978       8.768320    
  0.4449978       8.768931    
  0.4459978       8.769554    
  0.4469978       8.770188    
  0.4479978       8.770832    
  0.4489978       8.771387    
  0.4499978       8.771934    
  0.4509977       8.772498    
  0.4519977       8.773078    
  0.4529977       8.773672    
  0.4539977       8.774279    
  0.4549977       8.774899    
  0.4559977       8.775515    
  0.4569977       8.776139    
  0.4579976       8.776775    
  0.4589976       8.777420    
  0.4599976       8.778075    
  0.4609976       8.778738    
  0.4619976       8.779408    
  0.4629976       8.779946    
  0.4639976       8.780475    
  0.4649976       8.781023    
  0.4659975       8.781588    
  0.4669975       8.782168    
  0.4679975       8.782763    
  0.4689975       8.783372    
  0.4699975       8.783984    
  0.4709975       8.784607    
  0.4719975       8.785241    
  0.4729975       8.785885    
  0.4739974       8.786538    
  0.4749974       8.787200    
  0.4759974       8.787843    
  0.4769974       8.788364    
  0.4779974       8.788905    
  0.4789974       8.789464    
  0.4799974       8.790038    
  0.4809974       8.790627    
  0.4819973       8.791230    
  0.4829973       8.791846    
  0.4839973       8.792472    
  0.4849973       8.793108    
  0.4859973       8.793754    
  0.4869973       8.794410    
  0.4879973       8.795074    
  0.4889973       8.795747    
  0.4899972       8.796418    
  0.4909972       8.797053    
  0.4919972       8.797699    
  0.4929972       8.798354    
  0.4939972       8.799018    
  0.4949972       8.799690    
  0.4959972       8.800369    
  0.4969971       8.801055    
  0.4979971       8.801748    
  0.4989971       8.802447    
  0.4999971       8.803151    
  0.5009971       8.803860    
  0.5019971       8.804574    
  0.5029971       8.805292    
  0.5039971       8.806014    
  0.5049971       8.806739    
  0.5059971       8.807467    
  0.5069970       8.808198    
  0.5079970       8.808932    
  0.5089970       8.809669    
  0.5099970       8.810409    
  0.5109970       8.811151    
  0.5119970       8.811895    
  0.5129970       8.812641    
  0.5139970       8.813389    
  0.5149969       8.814138    
  0.5159969       8.814889    
  0.5169969       8.815641    
  0.5179969       8.816395    
  0.5189969       8.817151    
  0.5199969       8.817908    
  0.5209969       8.818666    
  0.5219969       8.819424    
  0.5229968       8.820183    
  0.5239968       8.820943    
  0.5249968       8.821704    
  0.5259968       8.822466    
  0.5269968       8.823229    
  0.5279968       8.823992    
  0.5289968       8.824756    
  0.5299968       8.825521    
  0.5309967       8.826286    
  0.5319967       8.827052    
  0.5329967       8.827818    
  0.5339967       8.828585    
  0.5349967       8.829352    
  0.5359967       8.830120    
  0.5369967       8.830888    
  0.5379966       8.831657    
  0.5389966       8.832426    
  0.5399966       8.833195    
  0.5409966       8.833965    
  0.5419966       8.834735    
  0.5429966       8.835505    
  0.5439966       8.836276    
  0.5449966       8.837047    
  0.5459965       8.837818    
  0.5469965       8.838589    
  0.5479965       8.839361    
  0.5489965       8.840133    
  0.5499965       8.840906    
  0.5509965       8.841678    
  0.5519965       8.842451    
  0.5529965       8.843224    
  0.5539964       8.843998    
  0.5549964       8.844771    
  0.5559964       8.845545    
  0.5569964       8.846319    
  0.5579964       8.847093    
  0.5589964       8.847867    
  0.5599964       8.848641    
  0.5609964       8.849416    
  0.5619963       8.850191    
  0.5629963       8.850966    
  0.5639963       8.851742    
  0.5649963       8.852517    
  0.5659963       8.853293    
  0.5669963       8.854069    
  0.5679963       8.854845    
  0.5689963       8.855621    
  0.5699962       8.856398    
  0.5709962       8.857175    
  0.5719962       8.857952    
  0.5729962       8.858729    
  0.5739962       8.859506    
  0.5749962       8.860284    
  0.5759962       8.861062    
  0.5769961       8.861840    
  0.5779961       8.862618    
  0.5789961       8.863396    
  0.5799961       8.864175    
  0.5809961       8.864953    
  0.5819961       8.865732    
  0.5829961       8.866511    
  0.5839961       8.867290    
  0.5849960       8.868069    
  0.5859960       8.868848    
  0.5869960       8.869628    
  0.5879960       8.870407    
  0.5889960       8.871187    
  0.5899960       8.871967    
  0.5909960       8.872747    
  0.5919960       8.873527    
  0.5929959       8.874308    
  0.5939959       8.875089    
  0.5949959       8.875870    
  0.5959959       8.876651    
  0.5969959       8.877432    
  0.5979959       8.878213    
  0.5989959       8.878995    
  0.5999959       8.879776    
  0.6009958       8.880558    
  0.6019958       8.881340    
  0.6029958       8.882123    
  0.6039958       8.882905    
  0.6049958       8.883688    
  0.6059958       8.884470    
  0.6069958       8.885253    
  0.6079957       8.886036    
  0.6089957       8.886819    
  0.6099957       8.887603    
  0.6109957       8.888386    
  0.6119957       8.889170    
  0.6129957       8.889954    
  0.6139957       8.890738    
  0.6149957       8.891522    
  0.6159956       8.892306    
  0.6169956       8.893090    
  0.6179956       8.893875    
  0.6189956       8.894660    
  0.6199956       8.895445    
  0.6209956       8.896230    
  0.6219956       8.897015    
  0.6229956       8.897801    
  0.6239955       8.898586    
  0.6249955       8.899372    
  0.6259955       8.900158    
  0.6269955       8.900944    
  0.6279955       8.901730    
  0.6289955       8.902517    
  0.6299955       8.903303    
  0.6309955       8.904090    
  0.6319954       8.904877    
  0.6329954       8.905664    
  0.6339954       8.906451    
  0.6349954       8.907238    
  0.6359954       8.908026    
  0.6369954       8.908813    
  0.6379954       8.909601    
  0.6389953       8.910389    
  0.6399953       8.911177    
  0.6409953       8.911965    
  0.6419953       8.912753    
  0.6429953       8.913542    
  0.6439953       8.914331    
  0.6449953       8.915120    
  0.6459953       8.915909    
  0.6469952       8.916698    
  0.6479952       8.917488    
  0.6489952       8.918277    
  0.6499952       8.919066    
  0.6509952       8.919856    
  0.6519952       8.920646    
  0.6529952       8.921437    
  0.6539952       8.922227    
  0.6549951       8.923017    
  0.6559951       8.923807    
  0.6569951       8.924598    
  0.6579951       8.925389    
  0.6589951       8.926180    
  0.6599951       8.926971    
  0.6609951       8.927762    
  0.6619951       8.928554    
  0.6629950       8.929346    
  0.6639950       8.930138    
  0.6649950       8.930930    
  0.6659950       8.931722    
  0.6669950       8.932514    
  0.6679950       8.933306    
  0.6689950       8.934099    
  0.6699950       8.934892    
  0.6709949       8.935685    
  0.6719949       8.936478    
  0.6729949       8.937272    
  0.6739949       8.938066    
  0.6749949       8.938860    
  0.6759949       8.939653    
  0.6769949       8.940446    
  0.6779948       8.941239    
  0.6789948       8.942033    
  0.6799948       8.942827    
  0.6809948       8.943621    
  0.6819948       8.944416    
  0.6829948       8.945210    
  0.6839948       8.946005    
  0.6849948       8.946800    
  0.6859947       8.947595    
  0.6869947       8.948390    
  0.6879947       8.949186    
  0.6889947       8.949982    
  0.6899947       8.950778    
  0.6909947       8.951574    
  0.6919947       8.952371    
  0.6929947       8.953167    
  0.6939946       8.953963    
  0.6949946       8.954760    
  0.6959946       8.955557    
  0.6969946       8.956354    
  0.6979946       8.957151    
  0.6989946       8.957948    
  0.6999946       8.958745    
  0.7009946       8.959542    
  0.7019945       8.960339    
  0.7029945       8.961137    
  0.7039945       8.961935    
  0.7049945       8.962733    
  0.7059945       8.963531    
  0.7069945       8.964329    
  0.7079945       8.965127    
  0.7089944       8.965925    
  0.7099944       8.966724    
  0.7109944       8.967523    
  0.7119944       8.968322    
  0.7129944       8.969121    
  0.7139944       8.969920    
  0.7149944       8.970720    
  0.7159944       8.971519    
  0.7169943       8.972319    
  0.7179943       8.973118    
  0.7189943       8.973918    
  0.7199943       8.974719    
  0.7209943       8.975519    
  0.7219943       8.976320    
  0.7229943       8.977120    
  0.7239943       8.977921    
  0.7249942       8.978722    
  0.7259942       8.979523    
  0.7269942       8.980325    
  0.7279942       8.981127    
  0.7289942       8.981928    
  0.7299942       8.982729    
  0.7309942       8.983530    
  0.7319942       8.984332    
  0.7329941       8.985134    
  0.7339941       8.985937    
  0.7349941       8.986739    
  0.7359941       8.987541    
  0.7369941       8.988343    
  0.7379941       8.989146    
  0.7389941       8.989949    
  0.7399940       8.990752    
  0.7409940       8.991555    
  0.7419940       8.992359    
  0.7429940       8.993163    
  0.7439940       8.993967    
  0.7449940       8.994770    
  0.7459940       8.995574    
  0.7469940       8.996378    
  0.7479939       8.997182    
  0.7489939       8.997986    
  0.7499939       8.998791    
  0.7509939       8.999596    
  0.7519939       9.000401    
  0.7529939       9.001206    
  0.7539939       9.002011    
  0.7549939       9.002816    
  0.7559938       9.003621    
  0.7569938       9.004426    
  0.7579938       9.005232    
  0.7589938       9.006038    
  0.7599938       9.006844    
  0.7609938       9.007650    
  0.7619938       9.008456    
  0.7629938       9.009262    
  0.7639937       9.010069    
  0.7649937       9.010875    
  0.7659937       9.011681    
  0.7669937       9.012488    
  0.7679937       9.013295    
  0.7689937       9.014102    
  0.7699937       9.014910    
  0.7709936       9.015717    
  0.7719936       9.016524    
  0.7729936       9.017332    
  0.7739936       9.018140    
  0.7749936       9.018948    
  0.7759936       9.019756    
  0.7769936       9.020564    
  0.7779936       9.021372    
  0.7789935       9.022180    
  0.7799935       9.022989    
  0.7809935       9.023798    
  0.7819935       9.024607    
  0.7829935       9.025416    
  0.7839935       9.026225    
  0.7849935       9.027034    
  0.7859935       9.027844    
  0.7869934       9.028653    
  0.7879934       9.029463    
  0.7889934       9.030272    
  0.7899934       9.031082    
  0.7909934       9.031892    
  0.7919934       9.032702    
  0.7929934       9.033512    
  0.7939934       9.034323    
  0.7949933       9.035134    
  0.7959933       9.035944    
  0.7969933       9.036755    
  0.7979933       9.037566    
  0.7989933       9.038377    
  0.7999933       9.039188    
  0.8009933       9.040000    
  0.8019933       9.040812    
  0.8029932       9.041624    
  0.8039932       9.042436    
  0.8049932       9.043248    
  0.8059932       9.044060    
  0.8069932       9.044872    
  0.8079932       9.045684    
  0.8089932       9.046497    
  0.8099931       9.047309    
  0.8109931       9.048122    
  0.8119931       9.048935    
  0.8129931       9.049748    
  0.8139931       9.050561    
  0.8149931       9.051374    
  0.8159931       9.052188    
  0.8169931       9.053001    
  0.8179930       9.053815    
  0.8189930       9.054629    
  0.8199930       9.055443    
  0.8209930       9.056257    
  0.8219930       9.057072    
  0.8229930       9.057887    
  0.8239930       9.058701    
  0.8249930       9.059516    
  0.8259929       9.060331    
  0.8269929       9.061146    
  0.8279929       9.061961    
  0.8289929       9.062776    
  0.8299929       9.063591    
  0.8309929       9.064406    
  0.8319929       9.065222    
  0.8329929       9.066038    
  0.8339928       9.066854    
  0.8349928       9.067670    
  0.8359928       9.068486    
  0.8369928       9.069302    
  0.8379928       9.070118    
  0.8389928       9.070934    
  0.8399928       9.071751    
  0.8409927       9.072568    
  0.8419927       9.073385    
  0.8429927       9.074202    
  0.8439927       9.075019    
  0.8449927       9.075836    
  0.8459927       9.076654    
  0.8469927       9.077472    
  0.8479927       9.078289    
  0.8489926       9.079107    
  0.8499926       9.079925    
  0.8509926       9.080743    
  0.8519926       9.081561    
  0.8529926       9.082379    
  0.8539926       9.083197    
  0.8549926       9.084015    
  0.8559926       9.084834    
  0.8569925       9.085653    
  0.8579925       9.086472    
  0.8589925       9.087291    
  0.8599925       9.088110    
  0.8609925       9.088930    
  0.8619925       9.089749    
  0.8629925       9.090569    
  0.8639925       9.091389    
  0.8649924       9.092209    
  0.8659924       9.093029    
  0.8669924       9.093849    
  0.8679924       9.094669    
  0.8689924       9.095489    
  0.8699924       9.096309    
  0.8709924       9.097130    
  0.8719923       9.097951    
  0.8729923       9.098772    
  0.8739923       9.099593    
  0.8749923       9.100414    
  0.8759923       9.101235    
  0.8769923       9.102056    
  0.8779923       9.102878    
  0.8789923       9.103700    
  0.8799922       9.104522    
  0.8809922       9.105344    
  0.8819922       9.106166    
  0.8829922       9.106988    
  0.8839922       9.107810    
  0.8849922       9.108632    
  0.8859922       9.109454    
  0.8869922       9.110277    
  0.8879921       9.111100    
  0.8889921       9.111923    
  0.8899921       9.112746    
  0.8909921       9.113569    
  0.8919921       9.114392    
  0.8929921       9.115215    
  0.8939921       9.116038    
  0.8949921       9.116862    
  0.8959920       9.117686    
  0.8969920       9.118510    
  0.8979920       9.119334    
  0.8989920       9.120158    
  0.8999920       9.120982    
  0.9009920       9.121806    
  0.9019920       9.122630    
  0.9029920       9.123455    
  0.9039919       9.124280    
  0.9049919       9.125105    
  0.9059919       9.125930    
  0.9069919       9.126755    
  0.9079919       9.127580    
  0.9089919       9.128405    
  0.9099919       9.129230    
  0.9109918       9.130056    
  0.9119918       9.130882    
  0.9129918       9.131708    
  0.9139918       9.132534    
  0.9149918       9.133360    
  0.9159918       9.134186    
  0.9169918       9.135012    
  0.9179918       9.135839    
  0.9189917       9.136666    
  0.9199917       9.137492    
  0.9209917       9.138319    
  0.9219917       9.139146    
  0.9229917       9.139973    
  0.9239917       9.140800    
  0.9249917       9.141627    
  0.9259917       9.142454    
  0.9269916       9.143282    
  0.9279916       9.144110    
  0.9289916       9.144938    
  0.9299916       9.145766    
  0.9309916       9.146591    
  0.9319916       9.147342    
  0.9329916       9.147984    
  0.9339916       9.148525    
  0.9349915       9.148971    
  0.9359915       9.149328    
  0.9369915       9.149603    
  0.9379915       9.149800    
  0.9389915       9.149925    
  0.9399915       9.149983    
  0.9409915       9.149978    
  0.9419914       9.149914    
  0.9429914       9.149796    
  0.9439914       9.149627    
  0.9449914       9.149409    
  0.9459914       9.149147    
  0.9469914       9.148843    
  0.9479914       9.148500    
  0.9489914       9.148120    
  0.9499913       9.147706    
  0.9509913       9.147261    
  0.9519913       9.146786    
  0.9529913       9.146283    
  0.9539913       9.145754    
  0.9549913       9.145201    
  0.9559913       9.144625    
  0.9569913       9.144028    
  0.9579912       9.143411    
  0.9589912       9.142776    
  0.9599912       9.142124    
  0.9609912       9.141456    
  0.9619912       9.140772    
  0.9629912       9.140074    
  0.9639912       9.139364    
  0.9649912       9.138641    