 TITLE="LINE"
 VARIABLES="time","p"
 zone t="1"
  0.0000000E+00  0.4622876    
  1.0000000E-03  0.9144710    
  2.0000001E-03   1.403174    
  3.0000000E-03   1.901504    
  4.0000002E-03   2.393898    
  5.0000004E-03   2.870916    
  6.0000005E-03   3.326881    
  7.0000007E-03   3.758501    
  8.0000004E-03   4.164085    
  9.0000005E-03   4.543046    
  1.0000001E-02   4.895528    
  1.1000001E-02   5.222199    
  1.2000001E-02   5.524004    
  1.3000001E-02   5.801835    
  1.4000001E-02   6.057324    
  1.5000002E-02   6.291900    
  1.6000001E-02   6.506934    
  1.7000001E-02   6.703784    
  1.8000001E-02   6.883744    
  1.9000001E-02   7.048169    
  2.0000001E-02   7.198287    
  2.1000002E-02   7.335231    
  2.2000002E-02   7.460088    
  2.3000002E-02   7.573852    
  2.4000002E-02   7.677471    
  2.5000002E-02   7.771815    
  2.6000002E-02   7.857643    
  2.7000003E-02   7.935505    
  2.8000003E-02   8.006176    
  2.9000003E-02   8.070455    
  3.0000003E-02   8.128906    
  3.1000003E-02   8.182052    
  3.2000002E-02   8.230375    
  3.3000000E-02   8.274307    
  3.3999998E-02   8.314182    
  3.4999996E-02   8.350439    
  3.5999995E-02   8.383398    
  3.6999993E-02   8.413357    
  3.7999991E-02   8.440562    
  3.8999990E-02   8.465177    
  3.9999988E-02   8.487583    
  4.0999986E-02   8.507862    
  4.1999985E-02   8.526300    
  4.2999983E-02   8.543072    
  4.3999981E-02   8.558332    
  4.4999979E-02   8.572235    
  4.5999978E-02   8.584912    
  4.6999976E-02   8.596477    
  4.7999974E-02   8.607023    
  4.8999973E-02   8.616585    
  4.9999971E-02   8.625304    
  5.0999969E-02   8.633042    
  5.1999968E-02   8.640080    
  5.2999966E-02   8.646529    
  5.3999964E-02   8.652415    
  5.4999962E-02   8.657650    
  5.5999961E-02   8.662439    
  5.6999959E-02   8.666831    
  5.7999957E-02   8.670862    
  5.8999956E-02   8.674588    
  5.9999954E-02   8.678037    
  6.0999952E-02   8.681216    
  6.1999951E-02   8.684156    
  6.2999949E-02   8.686644    
  6.3999951E-02   8.688826    
  6.4999953E-02   8.690864    
  6.5999955E-02   8.692779    
  6.6999957E-02   8.694572    
  6.7999959E-02   8.696099    
  6.8999961E-02   8.697511    
  6.9999963E-02   8.698835    
  7.0999965E-02   8.700087    
  7.1999967E-02   8.701289    
  7.2999969E-02   8.702433    
  7.3999971E-02   8.703538    
  7.4999973E-02   8.704530    
  7.5999975E-02   8.705457    
  7.6999977E-02   8.706346    
  7.7999979E-02   8.707129    
  7.8999981E-02   8.707885    
  7.9999983E-02   8.708636    
  8.0999985E-02   8.709361    
  8.1999987E-02   8.709967    
  8.2999989E-02   8.710564    
  8.3999991E-02   8.711153    
  8.4999993E-02   8.711742    
  8.5999995E-02   8.712343    
  8.6999997E-02   8.712952    
  8.8000000E-02   8.713562    
  8.9000002E-02   8.714171    
  9.0000004E-02   8.714768    
  9.1000006E-02   8.715346    
  9.2000008E-02   8.715937    
  9.3000010E-02   8.716486    
  9.4000012E-02   8.717035    
  9.5000014E-02   8.717440    
  9.6000016E-02   8.717825    
  9.7000018E-02   8.718209    
  9.8000020E-02   8.718621    
  9.9000022E-02   8.719054    
  0.1000000       8.719506    
  0.1010000       8.719982    
  0.1020000       8.720468    
  0.1030000       8.720947    
  0.1040000       8.721429    
  0.1050000       8.721921    
  0.1060000       8.722432    
  0.1070000       8.722963    
  0.1080000       8.723396    
  0.1090000       8.723675    
  0.1100000       8.723968    
  0.1110000       8.724285    
  0.1120000       8.724638    
  0.1130001       8.725017    
  0.1140001       8.725422    
  0.1150001       8.725854    
  0.1160001       8.726293    
  0.1170001       8.726719    
  0.1180001       8.727171    
  0.1190001       8.727646    
  0.1200001       8.728134    
  0.1210001       8.728642    
  0.1220001       8.729061    
  0.1230001       8.729372    
  0.1240001       8.729701    
  0.1250001       8.730064    
  0.1260001       8.730450    
  0.1270001       8.730864    
  0.1280001       8.731301    
  0.1290001       8.731743    
  0.1300001       8.732177    
  0.1310001       8.732635    
  0.1320001       8.733107    
  0.1330001       8.733601    
  0.1340001       8.734111    
  0.1350001       8.734602    
  0.1360001       8.734935    
  0.1370001       8.735279    
  0.1380001       8.735600    
  0.1390001       8.735957    
  0.1400001       8.736342    
  0.1410001       8.736751    
  0.1420001       8.737176    
  0.1430001       8.737583    
  0.1440001       8.738016    
  0.1450001       8.738475    
  0.1460001       8.738955    
  0.1470001       8.739450    
  0.1480001       8.739960    
  0.1490001       8.740320    
  0.1500001       8.740654    
  0.1510001       8.741023    
  0.1520001       8.741404    
  0.1530001       8.741740    
  0.1540001       8.742106    
  0.1550001       8.742499    
  0.1560001       8.742877    
  0.1570001       8.743274    
  0.1580001       8.743698    
  0.1590001       8.744148    
  0.1600001       8.744622    
  0.1610001       8.745112    
  0.1620001       8.745581    
  0.1630002       8.745942    
  0.1640002       8.746332    
  0.1650002       8.746752    
  0.1660002       8.747198    
  0.1670002       8.747648    
  0.1680002       8.748045    
  0.1690002       8.748432    
  0.1700002       8.748833    
  0.1710002       8.749258    
  0.1720002       8.749708    
  0.1730002       8.750178    
  0.1740002       8.750671    
  0.1750002       8.751137    
  0.1760002       8.751446    
  0.1770002       8.751785    
  0.1780002       8.752158    
  0.1790002       8.752556    
  0.1800002       8.752984    
  0.1810002       8.753432    
  0.1820002       8.753834    
  0.1830002       8.754228    
  0.1840002       8.754650    
  0.1850002       8.755088    
  0.1860002       8.755551    
  0.1870002       8.756032    
  0.1880002       8.756532    
  0.1890002       8.756870    
  0.1900002       8.757206    
  0.1910002       8.757571    
  0.1920002       8.757962    
  0.1930002       8.758382    
  0.1940002       8.758822    
  0.1950002       8.759270    
  0.1960002       8.759716    
  0.1970002       8.760110    
  0.1980002       8.760514    
  0.1990002       8.760945    
  0.2000002       8.761390    
  0.2010002       8.761859    
  0.2020002       8.762302    
  0.2030002       8.762661    
  0.2040002       8.763047    
  0.2050002       8.763460    
  0.2060002       8.763889    
  0.2070002       8.764344    
  0.2080002       8.764801    
  0.2090002       8.765259    
  0.2100002       8.765732    
  0.2110002       8.766212    
  0.2120003       8.766636    
  0.2130003       8.767086    
  0.2140003       8.767545    
  0.2150003       8.768013    
  0.2160003       8.768333    
  0.2170003       8.768660    
  0.2180003       8.769021    
  0.2190003       8.769410    
  0.2200003       8.769821    
  0.2210003       8.770245    
  0.2220003       8.770679    
  0.2230003       8.771125    
  0.2240003       8.771595    
  0.2250003       8.772083    
  0.2260003       8.772583    
  0.2270003       8.773048    
  0.2280003       8.773519    
  0.2290003       8.773842    
  0.2300003       8.774171    
  0.2310003       8.774529    
  0.2320003       8.774920    
  0.2330003       8.775337    
  0.2340003       8.775777    
  0.2350003       8.776219    
  0.2360003       8.776673    
  0.2370003       8.777146    
  0.2380003       8.777642    
  0.2390003       8.778155    
  0.2400003       8.778687    
  0.2410003       8.779154    
  0.2420003       8.779591    
  0.2430003       8.779949    
  0.2440003       8.780334    
  0.2450003       8.780749    
  0.2460003       8.781188    
  0.2470003       8.781648    
  0.2480003       8.782127    
  0.2490003       8.782605    
  0.2500003       8.783098    
  0.2510003       8.783612    
  0.2520003       8.784143    
  0.2530003       8.784691    
  0.2540003       8.785249    
  0.2550003       8.785767    
  0.2560003       8.786078    
  0.2570002       8.786423    
  0.2580002       8.786798    
  0.2590002       8.787204    
  0.2600002       8.787633    
  0.2610002       8.788087    
  0.2620002       8.788550    
  0.2630002       8.789031    
  0.2640001       8.789531    
  0.2650001       8.790051    
  0.2660001       8.790585    
  0.2670001       8.791137    
  0.2680001       8.791699    
  0.2690001       8.792126    
  0.2700001       8.792538    
  0.2710001       8.792925    
  0.2720000       8.793341    
  0.2730000       8.793780    
  0.2740000       8.794244    
  0.2750000       8.794727    
  0.2760000       8.795226    
  0.2770000       8.795745    
  0.2780000       8.796277    
  0.2790000       8.796822    
  0.2799999       8.797382    
  0.2809999       8.797953    
  0.2819999       8.798528    
  0.2829999       8.799067    
  0.2839999       8.799619    
  0.2849999       8.800114    
  0.2859999       8.800611    
  0.2869999       8.801124    
  0.2879998       8.801656    
  0.2889998       8.802203    
  0.2899998       8.802766    
  0.2909998       8.803340    
  0.2919998       8.803922    
  0.2929998       8.804517    
  0.2939998       8.805120    
  0.2949997       8.805736    
  0.2959997       8.806360    
  0.2969997       8.806989    
  0.2979997       8.807622    
  0.2989997       8.808264    
  0.2999997       8.808840    
  0.3009997       8.809417    
  0.3019997       8.810005    
  0.3029996       8.810607    
  0.3039996       8.811215    
  0.3049996       8.811830    
  0.3059996       8.812453    
  0.3069996       8.813087    
  0.3079996       8.813728    
  0.3089996       8.814378    
  0.3099996       8.815032    
  0.3109995       8.815688    
  0.3119995       8.816351    
  0.3129995       8.817019    
  0.3139995       8.817678    
  0.3149995       8.818298    
  0.3159995       8.818925    
  0.3169995       8.819561    
  0.3179995       8.820202    
  0.3189994       8.820849    
  0.3199994       8.821503    
  0.3209994       8.822161    
  0.3219994       8.822826    
  0.3229994       8.823495    
  0.3239994       8.824166    
  0.3249994       8.824842    
  0.3259993       8.825522    
  0.3269993       8.826203    
  0.3279993       8.826885    
  0.3289993       8.827501    
  0.3299993       8.828115    
  0.3309993       8.828736    
  0.3319993       8.829366    
  0.3329993       8.830004    
  0.3339992       8.830646    
  0.3349992       8.831292    
  0.3359992       8.831949    
  0.3369992       8.832609    
  0.3379992       8.833276    
  0.3389992       8.833948    
  0.3399992       8.834622    
  0.3409992       8.835297    
  0.3419991       8.835974    
  0.3429991       8.836643    
  0.3439991       8.837252    
  0.3449991       8.837870    
  0.3459991       8.838499    
  0.3469991       8.839133    
  0.3479991       8.839771    
  0.3489991       8.840416    
  0.3499990       8.841070    
  0.3509990       8.841733    
  0.3519990       8.842402    
  0.3529990       8.843073    
  0.3539990       8.843750    
  0.3549990       8.844428    
  0.3559990       8.845109    
  0.3569990       8.845791    
  0.3579989       8.846434    
  0.3589989       8.847078    
  0.3599989       8.847727    
  0.3609989       8.848379    
  0.3619989       8.849037    
  0.3629989       8.849697    
  0.3639989       8.850365    
  0.3649988       8.851041    
  0.3659988       8.851720    
  0.3669988       8.852405    
  0.3679988       8.853090    
  0.3689988       8.853778    
  0.3699988       8.854466    
  0.3709988       8.855154    
  0.3719988       8.855850    
  0.3729987       8.856483    
  0.3739987       8.857109    
  0.3749987       8.857744    
  0.3759987       8.858386    
  0.3769987       8.859027    
  0.3779987       8.859678    
  0.3789987       8.860339    
  0.3799987       8.861008    
  0.3809986       8.861681    
  0.3819986       8.862358    
  0.3829986       8.863036    
  0.3839986       8.863715    
  0.3849986       8.864396    
  0.3859986       8.865085    
  0.3869986       8.865767    
  0.3879986       8.866388    
  0.3889985       8.867016    
  0.3899985       8.867650    
  0.3909985       8.868288    
  0.3919985       8.868934    
  0.3929985       8.869590    
  0.3939985       8.870256    
  0.3949985       8.870927    
  0.3959984       8.871605    
  0.3969984       8.872284    
  0.3979984       8.872961    
  0.3989984       8.873640    
  0.3999984       8.874326    
  0.4009984       8.875020    
  0.4019984       8.875675    
  0.4029984       8.876326    
  0.4039983       8.876980    
  0.4049983       8.877638    
  0.4059983       8.878300    
  0.4069983       8.878971    
  0.4079983       8.879651    
  0.4089983       8.880337    
  0.4099983       8.881024    
  0.4109983       8.881713    
  0.4119982       8.882403    
  0.4129982       8.883089    
  0.4139982       8.883782    
  0.4149982       8.884482    
  0.4159982       8.885174    
  0.4169982       8.885806    
  0.4179982       8.886444    
  0.4189982       8.887083    
  0.4199981       8.887726    
  0.4209981       8.888380    
  0.4219981       8.889044    
  0.4229981       8.889717    
  0.4239981       8.890393    
  0.4249981       8.891073    
  0.4259981       8.891754    
  0.4269980       8.892435    
  0.4279980       8.893124    
  0.4289980       8.893820    
  0.4299980       8.894523    
  0.4309980       8.895164    
  0.4319980       8.895799    
  0.4329980       8.896438    
  0.4339980       8.897081    
  0.4349979       8.897735    
  0.4359979       8.898399    
  0.4369979       8.899073    
  0.4379979       8.899754    
  0.4389979       8.900439    
  0.4399979       8.901121    
  0.4409979       8.901808    
  0.4419979       8.902502    
  0.4429978       8.903204    
  0.4439978       8.903912    
  0.4449978       8.904617    
  0.4459978       8.905279    
  0.4469978       8.905943    
  0.4479978       8.906615    
  0.4489978       8.907296    
  0.4499978       8.907985    
  0.4509977       8.908681    
  0.4519977       8.909384    
  0.4529977       8.910088    
  0.4539977       8.910792    
  0.4549977       8.911500    
  0.4559977       8.912214    
  0.4569977       8.912935    
  0.4579976       8.913661    
  0.4589976       8.914391    
  0.4599976       8.915058    
  0.4609976       8.915715    
  0.4619976       8.916381    
  0.4629976       8.917057    
  0.4639976       8.917742    
  0.4649976       8.918435    
  0.4659975       8.919135    
  0.4669975       8.919841    
  0.4679975       8.920547    
  0.4689975       8.921259    
  0.4699975       8.921976    
  0.4709975       8.922700    
  0.4719975       8.923429    
  0.4729975       8.924163    
  0.4739974       8.924834    
  0.4749974       8.925500    
  0.4759974       8.926175    
  0.4769974       8.926859    
  0.4779974       8.927551    
  0.4789974       8.928251    
  0.4799974       8.928958    
  0.4809974       8.929671    
  0.4819973       8.930389    
  0.4829973       8.931112    
  0.4839973       8.931841    
  0.4849973       8.932574    
  0.4859973       8.933312    
  0.4869973       8.934055    
  0.4879973       8.934796    
  0.4889973       8.935520    
  0.4899972       8.936249    
  0.4909972       8.936983    
  0.4919972       8.937722    
  0.4929972       8.938465    
  0.4939972       8.939212    
  0.4949972       8.939963    
  0.4959972       8.940717    
  0.4969971       8.941474    
  0.4979971       8.942234    
  0.4989971       8.942996    
  0.4999971       8.943761    
  0.5009971       8.944528    
  0.5019971       8.945298    
  0.5029971       8.946070    
  0.5039971       8.946844    
  0.5049971       8.947620    
  0.5059971       8.948397    
  0.5069970       8.949176    
  0.5079970       8.949956    
  0.5089970       8.950737    
  0.5099970       8.951519    
  0.5109970       8.952303    
  0.5119970       8.953088    
  0.5129970       8.953874    
  0.5139970       8.954660    
  0.5149969       8.955448    
  0.5159969       8.956237    
  0.5169969       8.957026    
  0.5179969       8.957816    
  0.5189969       8.958607    
  0.5199969       8.959398    
  0.5209969       8.960190    
  0.5219969       8.960983    
  0.5229968       8.961776    
  0.5239968       8.962569    
  0.5249968       8.963363    
  0.5259968       8.964158    
  0.5269968       8.964953    
  0.5279968       8.965749    
  0.5289968       8.966545    
  0.5299968       8.967341    
  0.5309967       8.968138    
  0.5319967       8.968935    
  0.5329967       8.969732    
  0.5339967       8.970530    
  0.5349967       8.971328    
  0.5359967       8.972126    
  0.5369967       8.972924    
  0.5379966       8.973723    
  0.5389966       8.974522    
  0.5399966       8.975322    
  0.5409966       8.976122    
  0.5419966       8.976922    
  0.5429966       8.977722    
  0.5439966       8.978523    
  0.5449966       8.979324    
  0.5459965       8.980125    
  0.5469965       8.980926    
  0.5479965       8.981727    
  0.5489965       8.982529    
  0.5499965       8.983330    
  0.5509965       8.984132    
  0.5519965       8.984934    
  0.5529965       8.985737    
  0.5539964       8.986540    
  0.5549964       8.987342    
  0.5559964       8.988145    
  0.5569964       8.988948    
  0.5579964       8.989752    
  0.5589964       8.990555    
  0.5599964       8.991359    
  0.5609964       8.992163    
  0.5619963       8.992967    
  0.5629963       8.993772    
  0.5639963       8.994577    
  0.5649963       8.995381    
  0.5659963       8.996185    
  0.5669963       8.996990    
  0.5679963       8.997795    
  0.5689963       8.998600    
  0.5699962       8.999406    
  0.5709962       9.000212    
  0.5719962       9.001017    
  0.5729962       9.001823    
  0.5739962       9.002629    
  0.5749962       9.003435    
  0.5759962       9.004241    
  0.5769961       9.005048    
  0.5779961       9.005855    
  0.5789961       9.006662    
  0.5799961       9.007469    
  0.5809961       9.008276    
  0.5819961       9.009083    
  0.5829961       9.009890    
  0.5839961       9.010697    
  0.5849960       9.011505    
  0.5859960       9.012313    
  0.5869960       9.013121    
  0.5879960       9.013929    
  0.5889960       9.014738    
  0.5899960       9.015547    
  0.5909960       9.016356    
  0.5919960       9.017165    
  0.5929959       9.017974    
  0.5939959       9.018783    
  0.5949959       9.019593    
  0.5959959       9.020403    
  0.5969959       9.021213    
  0.5979959       9.022023    
  0.5989959       9.022833    
  0.5999959       9.023643    
  0.6009958       9.024453    
  0.6019958       9.025263    
  0.6029958       9.026074    
  0.6039958       9.026885    
  0.6049958       9.027696    
  0.6059958       9.028507    
  0.6069958       9.029318    
  0.6079957       9.030129    
  0.6089957       9.030940    
  0.6099957       9.031752    
  0.6109957       9.032564    
  0.6119957       9.033376    
  0.6129957       9.034188    
  0.6139957       9.035000    
  0.6149957       9.035812    
  0.6159956       9.036624    
  0.6169956       9.037436    
  0.6179956       9.038249    
  0.6189956       9.039062    
  0.6199956       9.039875    
  0.6209956       9.040688    
  0.6219956       9.041502    
  0.6229956       9.042315    
  0.6239955       9.043128    
  0.6249955       9.043942    
  0.6259955       9.044756    
  0.6269955       9.045570    
  0.6279955       9.046385    
  0.6289955       9.047200    
  0.6299955       9.048015    
  0.6309955       9.048829    
  0.6319954       9.049643    
  0.6329954       9.050457    
  0.6339954       9.051272    
  0.6349954       9.052087    
  0.6359954       9.052902    
  0.6369954       9.053718    
  0.6379954       9.054533    
  0.6389953       9.055349    
  0.6399953       9.056165    
  0.6409953       9.056981    
  0.6419953       9.057797    
  0.6429953       9.058613    
  0.6439953       9.059429    
  0.6449953       9.060246    
  0.6459953       9.061063    
  0.6469952       9.061880    
  0.6479952       9.062697    
  0.6489952       9.063515    
  0.6499952       9.064333    
  0.6509952       9.065150    
  0.6519952       9.065967    
  0.6529952       9.066785    
  0.6539952       9.067603    
  0.6549951       9.068421    
  0.6559951       9.069239    
  0.6569951       9.070058    
  0.6579951       9.070877    
  0.6589951       9.071696    
  0.6599951       9.072515    
  0.6609951       9.073335    
  0.6619951       9.074154    
  0.6629950       9.074973    
  0.6639950       9.075793    
  0.6649950       9.076613    
  0.6659950       9.077432    
  0.6669950       9.078252    
  0.6679950       9.079072    
  0.6689950       9.079892    
  0.6699950       9.080712    
  0.6709949       9.081532    
  0.6719949       9.082352    
  0.6729949       9.083172    
  0.6739949       9.083993    
  0.6749949       9.084814    
  0.6759949       9.085635    
  0.6769949       9.086456    
  0.6779948       9.087277    
  0.6789948       9.088099    
  0.6799948       9.088921    
  0.6809948       9.089743    
  0.6819948       9.090565    
  0.6829948       9.091387    
  0.6839948       9.092209    
  0.6849948       9.093032    
  0.6859947       9.093854    
  0.6869947       9.094677    
  0.6879947       9.095500    
  0.6889947       9.096322    
  0.6899947       9.097145    
  0.6909947       9.097968    
  0.6919947       9.098792    
  0.6929947       9.099615    
  0.6939946       9.100439    
  0.6949946       9.101263    
  0.6959946       9.102087    
  0.6969946       9.102911    
  0.6979946       9.103735    
  0.6989946       9.104560    
  0.6999946       9.105384    
  0.7009946       9.106209    
  0.7019945       9.107034    
  0.7029945       9.107859    
  0.7039945       9.108684    
  0.7049945       9.109509    
  0.7059945       9.110334    
  0.7069945       9.111159    
  0.7079945       9.111985    
  0.7089944       9.112810    
  0.7099944       9.113636    
  0.7109944       9.114462    
  0.7119944       9.115288    
  0.7129944       9.116114    
  0.7139944       9.116940    
  0.7149944       9.117766    
  0.7159944       9.118593    
  0.7169943       9.119420    
  0.7179943       9.120247    
  0.7189943       9.121074    
  0.7199943       9.121901    
  0.7209943       9.122728    
  0.7219943       9.123555    
  0.7229943       9.124383    
  0.7239943       9.125211    
  0.7249942       9.126039    
  0.7259942       9.126867    
  0.7269942       9.127695    
  0.7279942       9.128523    
  0.7289942       9.129351    
  0.7299942       9.130180    
  0.7309942       9.131008    
  0.7319942       9.131837    
  0.7329941       9.132666    
  0.7339941       9.133495    
  0.7349941       9.134324    
  0.7359941       9.135153    
  0.7369941       9.135983    
  0.7379941       9.136813    
  0.7389941       9.137643    
  0.7399940       9.138473    
  0.7409940       9.139303    
  0.7419940       9.140133    
  0.7429940       9.140964    
  0.7439940       9.141794    
  0.7449940       9.142624    
  0.7459940       9.143455    
  0.7469940       9.144286    
  0.7479939       9.145117    
  0.7489939       9.145948    
  0.7499939       9.146779    
  0.7509939       9.147610    
  0.7519939       9.148442    
  0.7529939       9.149274    
  0.7539939       9.150106    
  0.7549939       9.150938    
  0.7559938       9.151770    
  0.7569938       9.152602    
  0.7579938       9.153434    
  0.7589938       9.154266    
  0.7599938       9.155098    
  0.7609938       9.155931    
  0.7619938       9.156764    
  0.7629938       9.157597    
  0.7639937       9.158430    
  0.7649937       9.159263    
  0.7659937       9.160096    
  0.7669937       9.160929    
  0.7679937       9.161762    
  0.7689937       9.162596    
  0.7699937       9.163430    
  0.7709936       9.164264    
  0.7719936       9.165098    
  0.7729936       9.165932    
  0.7739936       9.166766    
  0.7749936       9.167600    
  0.7759936       9.168434    
  0.7769936       9.169269    
  0.7779936       9.170103    
  0.7789935       9.170938    
  0.7799935       9.171773    
  0.7809935       9.172608    
  0.7819935       9.173443    
  0.7829935       9.174278    
  0.7839935       9.175114    
  0.7849935       9.175950    
  0.7859935       9.176786    
  0.7869934       9.177622    
  0.7879934       9.178458    
  0.7889934       9.179294    
  0.7899934       9.180130    
  0.7909934       9.180967    
  0.7919934       9.181804    
  0.7929934       9.182640    
  0.7939934       9.183477    
  0.7949933       9.184314    
  0.7959933       9.185151    
  0.7969933       9.185988    
  0.7979933       9.186826    
  0.7989933       9.187663    
  0.7999933       9.188500    
  0.8009933       9.189338    
  0.8019933       9.190176    
  0.8029932       9.191014    
  0.8039932       9.191852    
  0.8049932       9.192691    
  0.8059932       9.193529    
  0.8069932       9.194367    
  0.8079932       9.195206    
  0.8089932       9.196045    
  0.8099931       9.196884    
  0.8109931       9.197723    
  0.8119931       9.198562    
  0.8129931       9.199401    
  0.8139931       9.200240    
  0.8149931       9.201080    
  0.8159931       9.201919    
  0.8169931       9.202759    
  0.8179930       9.203599    
  0.8189930       9.204439    
  0.8199930       9.205279    
  0.8209930       9.206119    
  0.8219930       9.206960    
  0.8229930       9.207800    
  0.8239930       9.208641    
  0.8249930       9.209482    
  0.8259929       9.210323    
  0.8269929       9.211164    
  0.8279929       9.212005    
  0.8289929       9.212846    
  0.8299929       9.213687    
  0.8309929       9.214529    
  0.8319929       9.215371    
  0.8329929       9.216213    
  0.8339928       9.217055    
  0.8349928       9.217897    
  0.8359928       9.218739    
  0.8369928       9.219581    
  0.8379928       9.220424    
  0.8389928       9.221267    
  0.8399928       9.222110    
  0.8409927       9.222953    
  0.8419927       9.223796    
  0.8429927       9.224639    
  0.8439927       9.225482    
  0.8449927       9.226325    
  0.8459927       9.227168    
  0.8469927       9.228011    
  0.8479927       9.228855    
  0.8489926       9.229699    
  0.8499926       9.230543    
  0.8509926       9.231387    
  0.8519926       9.232231    
  0.8529926       9.233075    
  0.8539926       9.233919    
  0.8549926       9.234763    
  0.8559926       9.235608    
  0.8569925       9.236453    
  0.8579925       9.237298    
  0.8589925       9.238143    
  0.8599925       9.238988    
  0.8609925       9.239833    
  0.8619925       9.240679    
  0.8629925       9.241524    
  0.8639925       9.242369    
  0.8649924       9.243215    
  0.8659924       9.244061    
  0.8669924       9.244907    
  0.8679924       9.245753    
  0.8689924       9.246599    
  0.8699924       9.247445    
  0.8709924       9.248291    
  0.8719923       9.249138    
  0.8729923       9.249985    
  0.8739923       9.250832    
  0.8749923       9.251678    
  0.8759923       9.252525    
  0.8769923       9.253372    
  0.8779923       9.254219    
  0.8789923       9.255066    
  0.8799922       9.255914    
  0.8809922       9.256761    
  0.8819922       9.257609    
  0.8829922       9.258457    
  0.8839922       9.259305    
  0.8849922       9.260153    
  0.8859922       9.261001    
  0.8869922       9.261849    
  0.8879921       9.262697    
  0.8889921       9.263545    
  0.8899921       9.264393    
  0.8909921       9.265242    
  0.8919921       9.266091    
  0.8929921       9.266940    
  0.8939921       9.267789    
  0.8949921       9.268638    
  0.8959920       9.269487    
  0.8969920       9.270337    
  0.8979920       9.271187    
  0.8989920       9.272036    
  0.8999920       9.272886    
  0.9009920       9.273736    
  0.9019920       9.274586    
  0.9029920       9.275436    
  0.9039919       9.276286    
  0.9049919       9.277136    
  0.9059919       9.277987    
  0.9069919       9.278838    
  0.9079919       9.279689    
  0.9089919       9.280540    
  0.9099919       9.281391    
  0.9109918       9.282242    
  0.9119918       9.283093    
  0.9129918       9.283944    
  0.9139918       9.284796    
  0.9149918       9.285648    
  0.9159918       9.286500    
  0.9169918       9.287351    
  0.9179918       9.288203    
  0.9189917       9.289055    
  0.9199917       9.289907    
  0.9209917       9.290760    
  0.9219917       9.291613    
  0.9229917       9.292465    
  0.9239917       9.293317    
  0.9249917       9.294170    
  0.9259917       9.295023    
  0.9269916       9.295864    
  0.9279916       9.296583    
  0.9289916       9.297175    
  0.9299916       9.297649    
  0.9309916       9.298013    
  0.9319916       9.298273    
  0.9329916       9.298436    
  0.9339916       9.298508    
  0.9349915       9.298494    
  0.9359915       9.298400    
  0.9369915       9.298231    
  0.9379915       9.297992    
  0.9389915       9.297687    
  0.9399915       9.297321    
  0.9409915       9.296897    
  0.9419914       9.296419    
  0.9429914       9.295891    
  0.9439914       9.295315    
  0.9449914       9.294695    
  0.9459914       9.294034    
  0.9469914       9.293333    
  0.9479914       9.292596    
  0.9489914       9.291825    
  0.9499913       9.291022    
  0.9509913       9.290189    
  0.9519913       9.289327    
  0.9529913       9.288439    
  0.9539913       9.287526    
  0.9549913       9.286590    
  0.9559913       9.285633    
  0.9569913       9.284655    
  0.9579912       9.283658    
  0.9589912       9.282643    
  0.9599912       9.281612    
  0.9609912       9.280565    
  0.9619912       9.279504    
  0.9629912       9.278429    
  0.9639912       9.277341    
  0.9649912       9.276241    