 TITLE="LINE"
 VARIABLES="time","p"
 zone t="1"
  0.0000000E+00  0.4688669    
  1.0000000E-03  0.9282091    
  2.0000001E-03   1.422625    
  3.0000000E-03   1.924535    
  4.0000002E-03   2.418204    
  5.0000004E-03   2.894269    
  6.0000005E-03   3.347221    
  7.0000007E-03   3.774013    
  8.0000004E-03   4.173228    
  9.0000005E-03   4.544539    
  1.0000001E-02   4.888352    
  1.1000001E-02   5.205550    
  1.2000001E-02   5.497324    
  1.3000001E-02   5.765055    
  1.4000001E-02   6.010218    
  1.5000002E-02   6.234327    
  1.6000001E-02   6.438889    
  1.7000001E-02   6.625374    
  1.8000001E-02   6.795199    
  1.9000001E-02   6.949712    
  2.0000001E-02   7.090182    
  2.1000002E-02   7.217801    
  2.2000002E-02   7.333677    
  2.3000002E-02   7.438842    
  2.4000002E-02   7.534246    
  2.5000002E-02   7.620765    
  2.6000002E-02   7.699204    
  2.7000003E-02   7.770300    
  2.8000003E-02   7.834731    
  2.9000003E-02   7.893114    
  3.0000003E-02   7.946010    
  3.1000003E-02   7.993933    
  3.2000002E-02   8.037351    
  3.3000000E-02   8.076686    
  3.3999998E-02   8.112326    
  3.4999996E-02   8.144621    
  3.5999995E-02   8.173886    
  3.6999993E-02   8.200413    
  3.7999991E-02   8.224462    
  3.8999990E-02   8.246267    
  3.9999988E-02   8.266047    
  4.0999986E-02   8.283992    
  4.1999985E-02   8.300279    
  4.2999983E-02   8.315068    
  4.3999981E-02   8.328501    
  4.4999979E-02   8.340710    
  4.5999978E-02   8.351811    
  4.6999976E-02   8.361911    
  4.7999974E-02   8.371106    
  4.8999973E-02   8.379485    
  4.9999971E-02   8.387123    
  5.0999969E-02   8.394093    
  5.1999968E-02   8.400460    
  5.2999966E-02   8.406280    
  5.3999964E-02   8.411607    
  5.4999962E-02   8.416489    
  5.5999961E-02   8.420968    
  5.6999959E-02   8.425081    
  5.7999957E-02   8.428865    
  5.8999956E-02   8.432352    
  5.9999954E-02   8.435570    
  6.0999952E-02   8.438544    
  6.1999951E-02   8.441298    
  6.2999949E-02   8.443854    
  6.3999951E-02   8.446230    
  6.4999953E-02   8.448444    
  6.5999955E-02   8.450511    
  6.6999957E-02   8.452444    
  6.7999959E-02   8.454257    
  6.8999961E-02   8.455962    
  6.9999963E-02   8.457569    
  7.0999965E-02   8.459087    
  7.1999967E-02   8.460526    
  7.2999969E-02   8.461892    
  7.3999971E-02   8.463192    
  7.4999973E-02   8.464432    
  7.5999975E-02   8.465618    
  7.6999977E-02   8.466756    
  7.7999979E-02   8.467850    
  7.8999981E-02   8.468905    
  7.9999983E-02   8.469924    
  8.0999985E-02   8.470910    
  8.1999987E-02   8.471867    
  8.2999989E-02   8.472798    
  8.3999991E-02   8.473705    
  8.4999993E-02   8.474590    
  8.5999995E-02   8.475455    
  8.6999997E-02   8.476303    
  8.8000000E-02   8.477135    
  8.9000002E-02   8.477952    
  9.0000004E-02   8.478757    
  9.1000006E-02   8.479551    
  9.2000008E-02   8.480334    
  9.3000010E-02   8.481107    
  9.4000012E-02   8.481871    
  9.5000014E-02   8.482627    
  9.6000016E-02   8.483375    
  9.7000018E-02   8.484117    
  9.8000020E-02   8.484854    
  9.9000022E-02   8.485586    
  0.1000000       8.486313    
  0.1010000       8.487036    
  0.1020000       8.487755    
  0.1030000       8.488471    
  0.1040000       8.489184    
  0.1050000       8.489894    
  0.1060000       8.490601    
  0.1070000       8.491306    
  0.1080000       8.492010    
  0.1090000       8.492711    
  0.1100000       8.493410    
  0.1110000       8.494109    
  0.1120000       8.494807    
  0.1130001       8.495503    
  0.1140001       8.496198    
  0.1150001       8.496892    
  0.1160001       8.497585    
  0.1170001       8.498278    
  0.1180001       8.498970    
  0.1190001       8.499662    
  0.1200001       8.500354    
  0.1210001       8.501045    
  0.1220001       8.501736    
  0.1230001       8.502427    
  0.1240001       8.503117    
  0.1250001       8.503808    
  0.1260001       8.504498    
  0.1270001       8.505188    
  0.1280001       8.505878    
  0.1290001       8.506568    
  0.1300001       8.507258    
  0.1310001       8.507948    
  0.1320001       8.508638    
  0.1330001       8.509328    
  0.1340001       8.510019    
  0.1350001       8.510709    
  0.1360001       8.511400    
  0.1370001       8.512091    
  0.1380001       8.512782    
  0.1390001       8.513474    
  0.1400001       8.514165    
  0.1410001       8.514857    
  0.1420001       8.515549    
  0.1430001       8.516241    
  0.1440001       8.516933    
  0.1450001       8.517625    
  0.1460001       8.518318    
  0.1470001       8.519011    
  0.1480001       8.519704    
  0.1490001       8.520397    
  0.1500001       8.521090    
  0.1510001       8.521783    
  0.1520001       8.522477    
  0.1530001       8.523171    
  0.1540001       8.523865    
  0.1550001       8.524560    
  0.1560001       8.525256    
  0.1570001       8.525951    
  0.1580001       8.526646    
  0.1590001       8.527342    
  0.1600001       8.528039    
  0.1610001       8.528735    
  0.1620001       8.529431    
  0.1630002       8.530127    
  0.1640002       8.530824    
  0.1650002       8.531521    
  0.1660002       8.532218    
  0.1670002       8.532915    
  0.1680002       8.533613    
  0.1690002       8.534311    
  0.1700002       8.535010    
  0.1710002       8.535709    
  0.1720002       8.536408    
  0.1730002       8.537107    
  0.1740002       8.537806    
  0.1750002       8.538506    
  0.1760002       8.539206    
  0.1770002       8.539906    
  0.1780002       8.540607    
  0.1790002       8.541308    
  0.1800002       8.542009    
  0.1810002       8.542710    
  0.1820002       8.543411    
  0.1830002       8.544112    
  0.1840002       8.544814    
  0.1850002       8.545516    
  0.1860002       8.546219    
  0.1870002       8.546922    
  0.1880002       8.547625    
  0.1890002       8.548328    
  0.1900002       8.549031    
  0.1910002       8.549735    
  0.1920002       8.550439    
  0.1930002       8.551144    
  0.1940002       8.551849    
  0.1950002       8.552554    
  0.1960002       8.553259    
  0.1970002       8.553965    
  0.1980002       8.554671    
  0.1990002       8.555377    
  0.2000002       8.556083    
  0.2010002       8.556789    
  0.2020002       8.557495    
  0.2030002       8.558202    
  0.2040002       8.558910    
  0.2050002       8.559617    
  0.2060002       8.560325    
  0.2070002       8.561033    
  0.2080002       8.561741    
  0.2090002       8.562450    
  0.2100002       8.563159    
  0.2110002       8.563868    
  0.2120003       8.564577    
  0.2130003       8.565286    
  0.2140003       8.565996    
  0.2150003       8.566706    
  0.2160003       8.567416    
  0.2170003       8.568126    
  0.2180003       8.568837    
  0.2190003       8.569548    
  0.2200003       8.570259    
  0.2210003       8.570970    
  0.2220003       8.571682    
  0.2230003       8.572394    
  0.2240003       8.573105    
  0.2250003       8.573818    
  0.2260003       8.574530    
  0.2270003       8.575242    
  0.2280003       8.575955    
  0.2290003       8.576668    
  0.2300003       8.577381    
  0.2310003       8.578095    
  0.2320003       8.578809    
  0.2330003       8.579524    
  0.2340003       8.580238    
  0.2350003       8.580952    
  0.2360003       8.581667    
  0.2370003       8.582382    
  0.2380003       8.583097    
  0.2390003       8.583812    
  0.2400003       8.584528    
  0.2410003       8.585244    
  0.2420003       8.585961    
  0.2430003       8.586678    
  0.2440003       8.587394    
  0.2450003       8.588111    
  0.2460003       8.588828    
  0.2470003       8.589545    
  0.2480003       8.590263    
  0.2490003       8.590981    
  0.2500003       8.591700    
  0.2510003       8.592419    
  0.2520003       8.593138    
  0.2530003       8.593857    
  0.2540003       8.594576    
  0.2550003       8.595295    
  0.2560003       8.596015    
  0.2570002       8.596734    
  0.2580002       8.597454    
  0.2590002       8.598174    
  0.2600002       8.598894    
  0.2610002       8.599615    
  0.2620002       8.600337    
  0.2630002       8.601058    
  0.2640001       8.601780    
  0.2650001       8.602501    
  0.2660001       8.603223    
  0.2670001       8.603946    
  0.2680001       8.604668    
  0.2690001       8.605391    
  0.2700001       8.606114    
  0.2710001       8.606838    
  0.2720000       8.607561    
  0.2730000       8.608284    
  0.2740000       8.609008    
  0.2750000       8.609732    
  0.2760000       8.610456    
  0.2770000       8.611181    
  0.2780000       8.611906    
  0.2790000       8.612630    
  0.2799999       8.613355    
  0.2809999       8.614080    
  0.2819999       8.614806    
  0.2829999       8.615532    
  0.2839999       8.616258    
  0.2849999       8.616984    
  0.2859999       8.617710    
  0.2869999       8.618437    
  0.2879998       8.619164    
  0.2889998       8.619890    
  0.2899998       8.620617    
  0.2909998       8.621344    
  0.2919998       8.622072    
  0.2929998       8.622800    
  0.2939998       8.623529    
  0.2949997       8.624258    
  0.2959997       8.624986    
  0.2969997       8.625714    
  0.2979997       8.626443    
  0.2989997       8.627172    
  0.2999997       8.627901    
  0.3009997       8.628631    
  0.3019997       8.629361    
  0.3029996       8.630092    
  0.3039996       8.630823    
  0.3049996       8.631554    
  0.3059996       8.632285    
  0.3069996       8.633016    
  0.3079996       8.633748    
  0.3089996       8.634480    
  0.3099996       8.635212    
  0.3109995       8.635944    
  0.3119995       8.636676    
  0.3129995       8.637409    
  0.3139995       8.638142    
  0.3149995       8.638875    
  0.3159995       8.639608    
  0.3169995       8.640341    
  0.3179995       8.641074    
  0.3189994       8.641807    
  0.3199994       8.642541    
  0.3209994       8.643275    
  0.3219994       8.644009    
  0.3229994       8.644743    
  0.3239994       8.645477    
  0.3249994       8.646211    
  0.3259993       8.646947    
  0.3269993       8.647683    
  0.3279993       8.648419    
  0.3289993       8.649154    
  0.3299993       8.649890    
  0.3309993       8.650626    
  0.3319993       8.651362    
  0.3329993       8.652099    
  0.3339992       8.652836    
  0.3349992       8.653573    
  0.3359992       8.654310    
  0.3369992       8.655047    
  0.3379992       8.655784    
  0.3389992       8.656522    
  0.3399992       8.657260    
  0.3409992       8.657998    
  0.3419991       8.658736    
  0.3429991       8.659475    
  0.3439991       8.660214    
  0.3449991       8.660953    
  0.3459991       8.661692    
  0.3469991       8.662432    
  0.3479991       8.663172    
  0.3489991       8.663911    
  0.3499990       8.664651    
  0.3509990       8.665392    
  0.3519990       8.666132    
  0.3529990       8.666872    
  0.3539990       8.667613    
  0.3549990       8.668354    
  0.3559990       8.669095    
  0.3569990       8.669837    
  0.3579989       8.670579    
  0.3589989       8.671320    
  0.3599989       8.672063    
  0.3609989       8.672806    
  0.3619989       8.673548    
  0.3629989       8.674291    
  0.3639989       8.675034    
  0.3649988       8.675777    
  0.3659988       8.676521    
  0.3669988       8.677264    
  0.3679988       8.678008    
  0.3689988       8.678752    
  0.3699988       8.679495    
  0.3709988       8.680240    
  0.3719988       8.680984    
  0.3729987       8.681729    
  0.3739987       8.682474    
  0.3749987       8.683219    
  0.3759987       8.683964    
  0.3769987       8.684710    
  0.3779987       8.685456    
  0.3789987       8.686202    
  0.3799987       8.686948    
  0.3809986       8.687694    
  0.3819986       8.688441    
  0.3829986       8.689187    
  0.3839986       8.689934    
  0.3849986       8.690681    
  0.3859986       8.691428    
  0.3869986       8.692176    
  0.3879986       8.692923    
  0.3889985       8.693671    
  0.3899985       8.694419    
  0.3909985       8.695167    
  0.3919985       8.695915    
  0.3929985       8.696664    
  0.3939985       8.697412    
  0.3949985       8.698161    
  0.3959984       8.698910    
  0.3969984       8.699659    
  0.3979984       8.700409    
  0.3989984       8.701159    
  0.3999984       8.701909    
  0.4009984       8.702659    
  0.4019984       8.703409    
  0.4029984       8.704160    
  0.4039983       8.704911    
  0.4049983       8.705662    
  0.4059983       8.706413    
  0.4069983       8.707165    
  0.4079983       8.707917    
  0.4089983       8.708669    
  0.4099983       8.709421    
  0.4109983       8.710173    
  0.4119982       8.710925    
  0.4129982       8.711678    
  0.4139982       8.712430    
  0.4149982       8.713183    
  0.4159982       8.713936    
  0.4169982       8.714689    
  0.4179982       8.715442    
  0.4189982       8.716196    
  0.4199981       8.716950    
  0.4209981       8.717704    
  0.4219981       8.718458    
  0.4229981       8.719212    
  0.4239981       8.719967    
  0.4249981       8.720722    
  0.4259981       8.721477    
  0.4269980       8.722232    
  0.4279980       8.722987    
  0.4289980       8.723742    
  0.4299980       8.724498    
  0.4309980       8.725254    
  0.4319980       8.726010    
  0.4329980       8.726766    
  0.4339980       8.727522    
  0.4349979       8.728279    
  0.4359979       8.729036    
  0.4369979       8.729793    
  0.4379979       8.730550    
  0.4389979       8.731307    
  0.4399979       8.732065    
  0.4409979       8.732823    
  0.4419979       8.733581    
  0.4429978       8.734339    
  0.4439978       8.735097    
  0.4449978       8.735856    
  0.4459978       8.736614    
  0.4469978       8.737372    
  0.4479978       8.738131    
  0.4489978       8.738890    
  0.4499978       8.739649    
  0.4509977       8.740409    
  0.4519977       8.741169    
  0.4529977       8.741929    
  0.4539977       8.742689    
  0.4549977       8.743449    
  0.4559977       8.744209    
  0.4569977       8.744970    
  0.4579976       8.745730    
  0.4589976       8.746491    
  0.4599976       8.747252    
  0.4609976       8.748013    
  0.4619976       8.748774    
  0.4629976       8.749536    
  0.4639976       8.750298    
  0.4649976       8.751060    
  0.4659975       8.751822    
  0.4669975       8.752585    
  0.4679975       8.753348    
  0.4689975       8.754111    
  0.4699975       8.754874    
  0.4709975       8.755637    
  0.4719975       8.756400    
  0.4729975       8.757163    
  0.4739974       8.757926    
  0.4749974       8.758690    
  0.4759974       8.759454    
  0.4769974       8.760218    
  0.4779974       8.760982    
  0.4789974       8.761746    
  0.4799974       8.762511    
  0.4809974       8.763276    
  0.4819973       8.764041    
  0.4829973       8.764806    
  0.4839973       8.765571    
  0.4849973       8.766337    
  0.4859973       8.767103    
  0.4869973       8.767869    
  0.4879973       8.768635    
  0.4889973       8.769401    
  0.4899972       8.770168    
  0.4909972       8.770935    
  0.4919972       8.771702    
  0.4929972       8.772469    
  0.4939972       8.773236    
  0.4949972       8.774003    
  0.4959972       8.774771    
  0.4969971       8.775539    
  0.4979971       8.776307    
  0.4989971       8.777075    
  0.4999971       8.777843    
  0.5009971       8.778612    
  0.5019971       8.779380    
  0.5029971       8.780148    
  0.5039971       8.780917    
  0.5049971       8.781686    
  0.5059971       8.782455    
  0.5069970       8.783224    
  0.5079970       8.783994    
  0.5089970       8.784764    
  0.5099970       8.785533    
  0.5109970       8.786303    
  0.5119970       8.787073    
  0.5129970       8.787843    
  0.5139970       8.788613    
  0.5149969       8.789384    
  0.5159969       8.790155    
  0.5169969       8.790926    
  0.5179969       8.791697    
  0.5189969       8.792468    
  0.5199969       8.793239    
  0.5209969       8.794011    
  0.5219969       8.794783    
  0.5229968       8.795555    
  0.5239968       8.796327    
  0.5249968       8.797099    
  0.5259968       8.797872    
  0.5269968       8.798645    
  0.5279968       8.799418    
  0.5289968       8.800191    
  0.5299968       8.800964    
  0.5309967       8.801738    
  0.5319967       8.802512    
  0.5329967       8.803286    
  0.5339967       8.804060    
  0.5349967       8.804834    
  0.5359967       8.805609    
  0.5369967       8.806383    
  0.5379966       8.807158    
  0.5389966       8.807933    
  0.5399966       8.808707    
  0.5409966       8.809482    
  0.5419966       8.810257    
  0.5429966       8.811032    
  0.5439966       8.811807    
  0.5449966       8.812583    
  0.5459965       8.813358    
  0.5469965       8.814134    
  0.5479965       8.814910    
  0.5489965       8.815687    
  0.5499965       8.816463    
  0.5509965       8.817240    
  0.5519965       8.818016    
  0.5529965       8.818793    
  0.5539964       8.819570    
  0.5549964       8.820347    
  0.5559964       8.821124    
  0.5569964       8.821902    
  0.5579964       8.822680    
  0.5589964       8.823458    
  0.5599964       8.824236    
  0.5609964       8.825014    
  0.5619963       8.825793    
  0.5629963       8.826571    
  0.5639963       8.827350    
  0.5649963       8.828129    
  0.5659963       8.828908    
  0.5669963       8.829688    
  0.5679963       8.830467    
  0.5689963       8.831246    
  0.5699962       8.832026    
  0.5709962       8.832806    
  0.5719962       8.833586    
  0.5729962       8.834366    
  0.5739962       8.835146    
  0.5749962       8.835927    
  0.5759962       8.836707    
  0.5769961       8.837488    
  0.5779961       8.838269    
  0.5789961       8.839050    
  0.5799961       8.839831    
  0.5809961       8.840613    
  0.5819961       8.841394    
  0.5829961       8.842175    
  0.5839961       8.842957    
  0.5849960       8.843739    
  0.5859960       8.844521    
  0.5869960       8.845303    
  0.5879960       8.846086    
  0.5889960       8.846869    
  0.5899960       8.847652    
  0.5909960       8.848435    
  0.5919960       8.849218    
  0.5929959       8.850001    
  0.5939959       8.850785    
  0.5949959       8.851569    
  0.5959959       8.852352    
  0.5969959       8.853135    
  0.5979959       8.853919    
  0.5989959       8.854704    
  0.5999959       8.855488    
  0.6009958       8.856272    
  0.6019958       8.857057    
  0.6029958       8.857842    
  0.6039958       8.858627    
  0.6049958       8.859412    
  0.6059958       8.860197    
  0.6069958       8.860983    
  0.6079957       8.861769    
  0.6089957       8.862555    
  0.6099957       8.863341    
  0.6109957       8.864127    
  0.6119957       8.864913    
  0.6129957       8.865700    
  0.6139957       8.866487    
  0.6149957       8.867274    
  0.6159956       8.868061    
  0.6169956       8.868847    
  0.6179956       8.869634    
  0.6189956       8.870421    
  0.6199956       8.871209    
  0.6209956       8.871997    
  0.6219956       8.872785    
  0.6229956       8.873573    
  0.6239955       8.874361    
  0.6249955       8.875148    
  0.6259955       8.875936    
  0.6269955       8.876725    
  0.6279955       8.877514    
  0.6289955       8.878303    
  0.6299955       8.879092    
  0.6309955       8.879881    
  0.6319954       8.880670    
  0.6329954       8.881460    
  0.6339954       8.882250    
  0.6349954       8.883040    
  0.6359954       8.883829    
  0.6369954       8.884618    
  0.6379954       8.885408    
  0.6389953       8.886198    
  0.6399953       8.886988    
  0.6409953       8.887778    
  0.6419953       8.888569    
  0.6429953       8.889360    
  0.6439953       8.890151    
  0.6449953       8.890942    
  0.6459953       8.891733    
  0.6469952       8.892524    
  0.6479952       8.893315    
  0.6489952       8.894107    
  0.6499952       8.894899    
  0.6509952       8.895691    
  0.6519952       8.896483    
  0.6529952       8.897275    
  0.6539952       8.898067    
  0.6549951       8.898859    
  0.6559951       8.899651    
  0.6569951       8.900444    
  0.6579951       8.901238    
  0.6589951       8.902032    
  0.6599951       8.902826    
  0.6609951       8.903620    
  0.6619951       8.904414    
  0.6629950       8.905208    
  0.6639950       8.906002    
  0.6649950       8.906796    
  0.6659950       8.907590    
  0.6669950       8.908384    
  0.6679950       8.909178    
  0.6689950       8.909973    
  0.6699950       8.910768    
  0.6709949       8.911563    
  0.6719949       8.912358    
  0.6729949       8.913153    
  0.6739949       8.913948    
  0.6749949       8.914743    
  0.6759949       8.915539    
  0.6769949       8.916335    
  0.6779948       8.917131    
  0.6789948       8.917928    
  0.6799948       8.918725    
  0.6809948       8.919521    
  0.6819948       8.920317    
  0.6829948       8.921114    
  0.6839948       8.921911    
  0.6849948       8.922708    
  0.6859947       8.923505    
  0.6869947       8.924302    
  0.6879947       8.925099    
  0.6889947       8.925897    
  0.6899947       8.926695    
  0.6909947       8.927493    
  0.6919947       8.928291    
  0.6929947       8.929089    
  0.6939946       8.929888    
  0.6949946       8.930687    
  0.6959946       8.931486    
  0.6969946       8.932284    
  0.6979946       8.933083    
  0.6989946       8.933882    
  0.6999946       8.934681    
  0.7009946       8.935480    
  0.7019945       8.936280    
  0.7029945       8.937080    
  0.7039945       8.937880    
  0.7049945       8.938679    
  0.7059945       8.939479    
  0.7069945       8.940279    
  0.7079945       8.941079    
  0.7089944       8.941879    
  0.7099944       8.942680    
  0.7109944       8.943481    
  0.7119944       8.944281    
  0.7129944       8.945082    
  0.7139944       8.945883    
  0.7149944       8.946684    
  0.7159944       8.947486    
  0.7169943       8.948288    
  0.7179943       8.949089    
  0.7189943       8.949891    
  0.7199943       8.950693    
  0.7209943       8.951495    
  0.7219943       8.952297    
  0.7229943       8.953099    
  0.7239943       8.953901    
  0.7249942       8.954704    
  0.7259942       8.955507    
  0.7269942       8.956309    
  0.7279942       8.957112    
  0.7289942       8.957915    
  0.7299942       8.958718    
  0.7309942       8.959521    
  0.7319942       8.960324    
  0.7329941       8.961128    
  0.7339941       8.961932    
  0.7349941       8.962736    
  0.7359941       8.963540    
  0.7369941       8.964344    
  0.7379941       8.965148    
  0.7389941       8.965952    
  0.7399940       8.966756    
  0.7409940       8.967561    
  0.7419940       8.968366    
  0.7429940       8.969171    
  0.7439940       8.969976    
  0.7449940       8.970781    
  0.7459940       8.971586    
  0.7469940       8.972392    
  0.7479939       8.973198    
  0.7489939       8.974004    
  0.7499939       8.974810    
  0.7509939       8.975616    
  0.7519939       8.976422    
  0.7529939       8.977228    
  0.7539939       8.978035    
  0.7549939       8.978841    
  0.7559938       8.979648    
  0.7569938       8.980455    
  0.7579938       8.981262    
  0.7589938       8.982069    
  0.7599938       8.982877    
  0.7609938       8.983684    
  0.7619938       8.984492    
  0.7629938       8.985300    
  0.7639937       8.986108    
  0.7649937       8.986916    
  0.7659937       8.987724    
  0.7669937       8.988533    
  0.7679937       8.989341    
  0.7689937       8.990150    
  0.7699937       8.990958    
  0.7709936       8.991767    
  0.7719936       8.992576    
  0.7729936       8.993385    
  0.7739936       8.994194    
  0.7749936       8.995003    
  0.7759936       8.995813    
  0.7769936       8.996622    
  0.7779936       8.997432    
  0.7789935       8.998242    
  0.7799935       8.999052    
  0.7809935       8.999862    
  0.7819935       9.000672    
  0.7829935       9.001482    
  0.7839935       9.002292    
  0.7849935       9.003103    
  0.7859935       9.003914    
  0.7869934       9.004725    
  0.7879934       9.005536    
  0.7889934       9.006347    
  0.7899934       9.007158    
  0.7909934       9.007970    
  0.7919934       9.008781    
  0.7929934       9.009593    
  0.7939934       9.010405    
  0.7949933       9.011217    
  0.7959933       9.012029    
  0.7969933       9.012841    
  0.7979933       9.013653    
  0.7989933       9.014465    
  0.7999933       9.015277    
  0.8009933       9.016089    
  0.8019933       9.016902    
  0.8029932       9.017715    
  0.8039932       9.018528    
  0.8049932       9.019341    
  0.8059932       9.020155    
  0.8069932       9.020968    
  0.8079932       9.021781    
  0.8089932       9.022595    
  0.8099931       9.023408    
  0.8109931       9.024222    
  0.8119931       9.025036    
  0.8129931       9.025850    
  0.8139931       9.026664    
  0.8149931       9.027478    
  0.8159931       9.028293    
  0.8169931       9.029108    
  0.8179930       9.029923    
  0.8189930       9.030738    
  0.8199930       9.031553    
  0.8209930       9.032368    
  0.8219930       9.033183    
  0.8229930       9.033998    
  0.8239930       9.034814    
  0.8249930       9.035630    
  0.8259929       9.036446    
  0.8269929       9.037262    
  0.8279929       9.038078    
  0.8289929       9.038894    
  0.8299929       9.039710    
  0.8309929       9.040526    
  0.8319929       9.041343    
  0.8329929       9.042160    
  0.8339928       9.042977    
  0.8349928       9.043794    
  0.8359928       9.044611    
  0.8369928       9.045428    
  0.8379928       9.046245    
  0.8389928       9.047063    
  0.8399928       9.047881    
  0.8409927       9.048698    
  0.8419927       9.049516    
  0.8429927       9.050334    
  0.8439927       9.051152    
  0.8449927       9.051970    
  0.8459927       9.052788    
  0.8469927       9.053606    
  0.8479927       9.054424    
  0.8489926       9.055243    
  0.8499926       9.056062    
  0.8509926       9.056881    
  0.8519926       9.057700    
  0.8529926       9.058519    
  0.8539926       9.059339    
  0.8549926       9.060158    
  0.8559926       9.060977    
  0.8569925       9.061797    
  0.8579925       9.062617    
  0.8589925       9.063437    
  0.8599925       9.064257    
  0.8609925       9.065077    
  0.8619925       9.065897    
  0.8629925       9.066718    
  0.8639925       9.067539    
  0.8649924       9.068360    
  0.8659924       9.069181    
  0.8669924       9.070002    
  0.8679924       9.070823    
  0.8689924       9.071644    
  0.8699924       9.072465    
  0.8709924       9.073287    
  0.8719923       9.074108    
  0.8729923       9.074929    
  0.8739923       9.075751    
  0.8749923       9.076573    
  0.8759923       9.077395    
  0.8769923       9.078217    
  0.8779923       9.079040    
  0.8789923       9.079862    
  0.8799922       9.080685    
  0.8809922       9.081508    
  0.8819922       9.082331    
  0.8829922       9.083154    
  0.8839922       9.083977    
  0.8849922       9.084800    
  0.8859922       9.085623    
  0.8869922       9.086446    
  0.8879921       9.087270    
  0.8889921       9.088094    
  0.8899921       9.088918    
  0.8909921       9.089742    
  0.8919921       9.090566    
  0.8929921       9.091390    
  0.8939921       9.092214    
  0.8949921       9.093038    
  0.8959920       9.093862    
  0.8969920       9.094686    
  0.8979920       9.095511    
  0.8989920       9.096336    
  0.8999920       9.097161    
  0.9009920       9.097986    
  0.9019920       9.098811    
  0.9029920       9.099636    
  0.9039919       9.100461    
  0.9049919       9.101287    
  0.9059919       9.102112    
  0.9069919       9.102937    
  0.9079919       9.103763    
  0.9089919       9.104589    
  0.9099919       9.105415    
  0.9109918       9.106241    
  0.9119918       9.107068    
  0.9129918       9.107895    
  0.9139918       9.108722    
  0.9149918       9.109548    
  0.9159918       9.110375    
  0.9169918       9.111202    
  0.9179918       9.112029    
  0.9189917       9.112856    
  0.9199917       9.113683    
  0.9209917       9.114510    
  0.9219917       9.115338    
  0.9229917       9.116166    
  0.9239917       9.116994    
  0.9249917       9.117822    
  0.9259917       9.118650    
  0.9269916       9.119478    
  0.9279916       9.120306    
  0.9289916       9.121134    
  0.9299916       9.121962    
  0.9309916       9.122790    
  0.9319916       9.123619    
  0.9329916       9.124445    
  0.9339916       9.125201    
  0.9349915       9.125855    
  0.9359915       9.126413    
  0.9369915       9.126882    
  0.9379915       9.127268    
  0.9389915       9.127575    
  0.9399915       9.127810    
  0.9409915       9.127976    
  0.9419914       9.128078    
  0.9429914       9.128121    
  0.9439914       9.128108    
  0.9449914       9.128043    
  0.9459914       9.127929    
  0.9469914       9.127769    
  0.9479914       9.127567    
  0.9489914       9.127325    
  0.9499913       9.127046    
  0.9509913       9.126732    
  0.9519913       9.126385    
  0.9529913       9.126008    
  0.9539913       9.125602    
  0.9549913       9.125169    
  0.9559913       9.124712    
  0.9569913       9.124231    
  0.9579912       9.123728    
  0.9589912       9.123205    
  0.9599912       9.122664    
  0.9609912       9.122105    
  0.9619912       9.121529    
  0.9629912       9.120938    
  0.9639912       9.120332    
  0.9649912       9.119712    