 TITLE="LINE"
 VARIABLES="time","p"
 zone t="1"
  0.0000000E+00  0.4909908    
  1.0000000E-03  0.9784115    
  2.0000001E-03   1.500885    
  3.0000000E-03   2.028515    
  4.0000002E-03   2.544574    
  5.0000004E-03   3.039359    
  6.0000005E-03   3.507367    
  7.0000007E-03   3.945752    
  8.0000004E-03   4.353399    
  9.0000005E-03   4.730328    
  1.0000001E-02   5.077297    
  1.1000001E-02   5.395541    
  1.2000001E-02   5.686582    
  1.3000001E-02   5.952098    
  1.4000001E-02   6.193840    
  1.5000002E-02   6.413562    
  1.6000001E-02   6.612985    
  1.7000001E-02   6.793764    
  1.8000001E-02   6.957472    
  1.9000001E-02   7.105593    
  2.0000001E-02   7.239509    
  2.1000002E-02   7.360506    
  2.2000002E-02   7.469773    
  2.3000002E-02   7.568402    
  2.4000002E-02   7.657396    
  2.5000002E-02   7.737671    
  2.6000002E-02   7.810064    
  2.7000003E-02   7.875336    
  2.8000003E-02   7.934179    
  2.9000003E-02   7.987222    
  3.0000003E-02   8.035034    
  3.1000003E-02   8.078130    
  3.2000002E-02   8.116976    
  3.3000000E-02   8.151996    
  3.3999998E-02   8.183567    
  3.4999996E-02   8.212035    
  3.5999995E-02   8.237709    
  3.6999993E-02   8.260868    
  3.7999991E-02   8.281764    
  3.8999990E-02   8.300626    
  3.9999988E-02   8.317654    
  4.0999986E-02   8.333035    
  4.1999985E-02   8.346934    
  4.2999983E-02   8.359501    
  4.3999981E-02   8.370868    
  4.4999979E-02   8.381158    
  4.5999978E-02   8.390477    
  4.6999976E-02   8.398925    
  4.7999974E-02   8.406588    
  4.8999973E-02   8.413546    
  4.9999971E-02   8.419870    
  5.0999969E-02   8.425623    
  5.1999968E-02   8.430865    
  5.2999966E-02   8.435644    
  5.3999964E-02   8.440009    
  5.4999962E-02   8.444001    
  5.5999961E-02   8.447657    
  5.6999959E-02   8.451012    
  5.7999957E-02   8.454096    
  5.8999956E-02   8.456935    
  5.9999954E-02   8.459554    
  6.0999952E-02   8.461976    
  6.1999951E-02   8.464222    
  6.2999949E-02   8.466307    
  6.3999951E-02   8.468248    
  6.4999953E-02   8.470060    
  6.5999955E-02   8.471756    
  6.6999957E-02   8.473346    
  6.7999959E-02   8.474843    
  6.8999961E-02   8.476255    
  6.9999963E-02   8.477591    
  7.0999965E-02   8.478859    
  7.1999967E-02   8.480064    
  7.2999969E-02   8.481214    
  7.3999971E-02   8.482315    
  7.4999973E-02   8.483371    
  7.5999975E-02   8.484386    
  7.6999977E-02   8.485365    
  7.7999979E-02   8.486312    
  7.8999981E-02   8.487230    
  7.9999983E-02   8.488121    
  8.0999985E-02   8.488988    
  8.1999987E-02   8.489834    
  8.2999989E-02   8.490660    
  8.3999991E-02   8.491469    
  8.4999993E-02   8.492262    
  8.5999995E-02   8.493041    
  8.6999997E-02   8.493809    
  8.8000000E-02   8.494566    
  8.9000002E-02   8.495312    
  9.0000004E-02   8.496049    
  9.1000006E-02   8.496778    
  9.2000008E-02   8.497499    
  9.3000010E-02   8.498214    
  9.4000012E-02   8.498923    
  9.5000014E-02   8.499626    
  9.6000016E-02   8.500325    
  9.7000018E-02   8.501019    
  9.8000020E-02   8.501710    
  9.9000022E-02   8.502398    
  0.1000000       8.503082    
  0.1010000       8.503764    
  0.1020000       8.504443    
  0.1030000       8.505120    
  0.1040000       8.505796    
  0.1050000       8.506470    
  0.1060000       8.507143    
  0.1070000       8.507813    
  0.1080000       8.508484    
  0.1090000       8.509153    
  0.1100000       8.509821    
  0.1110000       8.510489    
  0.1120000       8.511156    
  0.1130001       8.511822    
  0.1140001       8.512489    
  0.1150001       8.513155    
  0.1160001       8.513820    
  0.1170001       8.514485    
  0.1180001       8.515150    
  0.1190001       8.515814    
  0.1200001       8.516479    
  0.1210001       8.517143    
  0.1220001       8.517808    
  0.1230001       8.518472    
  0.1240001       8.519137    
  0.1250001       8.519801    
  0.1260001       8.520466    
  0.1270001       8.521131    
  0.1280001       8.521796    
  0.1290001       8.522461    
  0.1300001       8.523127    
  0.1310001       8.523792    
  0.1320001       8.524458    
  0.1330001       8.525124    
  0.1340001       8.525791    
  0.1350001       8.526457    
  0.1360001       8.527124    
  0.1370001       8.527792    
  0.1380001       8.528459    
  0.1390001       8.529127    
  0.1400001       8.529794    
  0.1410001       8.530462    
  0.1420001       8.531131    
  0.1430001       8.531799    
  0.1440001       8.532468    
  0.1450001       8.533137    
  0.1460001       8.533806    
  0.1470001       8.534475    
  0.1480001       8.535145    
  0.1490001       8.535816    
  0.1500001       8.536486    
  0.1510001       8.537157    
  0.1520001       8.537828    
  0.1530001       8.538500    
  0.1540001       8.539171    
  0.1550001       8.539843    
  0.1560001       8.540515    
  0.1570001       8.541188    
  0.1580001       8.541862    
  0.1590001       8.542534    
  0.1600001       8.543207    
  0.1610001       8.543881    
  0.1620001       8.544555    
  0.1630002       8.545230    
  0.1640002       8.545905    
  0.1650002       8.546581    
  0.1660002       8.547257    
  0.1670002       8.547933    
  0.1680002       8.548608    
  0.1690002       8.549284    
  0.1700002       8.549960    
  0.1710002       8.550636    
  0.1720002       8.551313    
  0.1730002       8.551990    
  0.1740002       8.552668    
  0.1750002       8.553346    
  0.1760002       8.554024    
  0.1770002       8.554702    
  0.1780002       8.555381    
  0.1790002       8.556060    
  0.1800002       8.556739    
  0.1810002       8.557420    
  0.1820002       8.558101    
  0.1830002       8.558782    
  0.1840002       8.559463    
  0.1850002       8.560145    
  0.1860002       8.560826    
  0.1870002       8.561507    
  0.1880002       8.562189    
  0.1890002       8.562872    
  0.1900002       8.563556    
  0.1910002       8.564239    
  0.1920002       8.564922    
  0.1930002       8.565605    
  0.1940002       8.566288    
  0.1950002       8.566973    
  0.1960002       8.567658    
  0.1970002       8.568342    
  0.1980002       8.569027    
  0.1990002       8.569713    
  0.2000002       8.570399    
  0.2010002       8.571085    
  0.2020002       8.571771    
  0.2030002       8.572458    
  0.2040002       8.573144    
  0.2050002       8.573831    
  0.2060002       8.574519    
  0.2070002       8.575207    
  0.2080002       8.575894    
  0.2090002       8.576583    
  0.2100002       8.577271    
  0.2110002       8.577960    
  0.2120003       8.578650    
  0.2130003       8.579339    
  0.2140003       8.580028    
  0.2150003       8.580718    
  0.2160003       8.581408    
  0.2170003       8.582099    
  0.2180003       8.582789    
  0.2190003       8.583480    
  0.2200003       8.584171    
  0.2210003       8.584863    
  0.2220003       8.585555    
  0.2230003       8.586247    
  0.2240003       8.586939    
  0.2250003       8.587633    
  0.2260003       8.588326    
  0.2270003       8.589020    
  0.2280003       8.589713    
  0.2290003       8.590407    
  0.2300003       8.591101    
  0.2310003       8.591795    
  0.2320003       8.592489    
  0.2330003       8.593184    
  0.2340003       8.593880    
  0.2350003       8.594575    
  0.2360003       8.595271    
  0.2370003       8.595967    
  0.2380003       8.596663    
  0.2390003       8.597360    
  0.2400003       8.598057    
  0.2410003       8.598754    
  0.2420003       8.599452    
  0.2430003       8.600150    
  0.2440003       8.600848    
  0.2450003       8.601547    
  0.2460003       8.602245    
  0.2470003       8.602944    
  0.2480003       8.603643    
  0.2490003       8.604342    
  0.2500003       8.605041    
  0.2510003       8.605741    
  0.2520003       8.606441    
  0.2530003       8.607142    
  0.2540003       8.607843    
  0.2550003       8.608544    
  0.2560003       8.609245    
  0.2570002       8.609946    
  0.2580002       8.610648    
  0.2590002       8.611350    
  0.2600002       8.612052    
  0.2610002       8.612754    
  0.2620002       8.613457    
  0.2630002       8.614160    
  0.2640001       8.614864    
  0.2650001       8.615568    
  0.2660001       8.616271    
  0.2670001       8.616975    
  0.2680001       8.617679    
  0.2690001       8.618384    
  0.2700001       8.619089    
  0.2710001       8.619794    
  0.2720000       8.620500    
  0.2730000       8.621205    
  0.2740000       8.621911    
  0.2750000       8.622617    
  0.2760000       8.623324    
  0.2770000       8.624031    
  0.2780000       8.624738    
  0.2790000       8.625445    
  0.2799999       8.626152    
  0.2809999       8.626860    
  0.2819999       8.627568    
  0.2829999       8.628276    
  0.2839999       8.628984    
  0.2849999       8.629693    
  0.2859999       8.630402    
  0.2869999       8.631111    
  0.2879998       8.631821    
  0.2889998       8.632531    
  0.2899998       8.633241    
  0.2909998       8.633952    
  0.2919998       8.634663    
  0.2929998       8.635374    
  0.2939998       8.636085    
  0.2949997       8.636796    
  0.2959997       8.637508    
  0.2969997       8.638219    
  0.2979997       8.638932    
  0.2989997       8.639644    
  0.2999997       8.640357    
  0.3009997       8.641069    
  0.3019997       8.641782    
  0.3029996       8.642496    
  0.3039996       8.643209    
  0.3049996       8.643923    
  0.3059996       8.644637    
  0.3069996       8.645351    
  0.3079996       8.646066    
  0.3089996       8.646781    
  0.3099996       8.647496    
  0.3109995       8.648212    
  0.3119995       8.648927    
  0.3129995       8.649642    
  0.3139995       8.650358    
  0.3149995       8.651074    
  0.3159995       8.651790    
  0.3169995       8.652506    
  0.3179995       8.653223    
  0.3189994       8.653940    
  0.3199994       8.654657    
  0.3209994       8.655375    
  0.3219994       8.656093    
  0.3229994       8.656812    
  0.3239994       8.657530    
  0.3249994       8.658248    
  0.3259993       8.658967    
  0.3269993       8.659686    
  0.3279993       8.660406    
  0.3289993       8.661126    
  0.3299993       8.661845    
  0.3309993       8.662565    
  0.3319993       8.663285    
  0.3329993       8.664006    
  0.3339992       8.664727    
  0.3349992       8.665448    
  0.3359992       8.666170    
  0.3369992       8.666892    
  0.3379992       8.667614    
  0.3389992       8.668336    
  0.3399992       8.669058    
  0.3409992       8.669781    
  0.3419991       8.670504    
  0.3429991       8.671227    
  0.3439991       8.671951    
  0.3449991       8.672675    
  0.3459991       8.673399    
  0.3469991       8.674122    
  0.3479991       8.674846    
  0.3489991       8.675570    
  0.3499990       8.676295    
  0.3509990       8.677021    
  0.3519990       8.677746    
  0.3529990       8.678472    
  0.3539990       8.679197    
  0.3549990       8.679923    
  0.3559990       8.680649    
  0.3569990       8.681375    
  0.3579989       8.682101    
  0.3589989       8.682828    
  0.3599989       8.683555    
  0.3609989       8.684282    
  0.3619989       8.685010    
  0.3629989       8.685738    
  0.3639989       8.686466    
  0.3649988       8.687194    
  0.3659988       8.687923    
  0.3669988       8.688651    
  0.3679988       8.689380    
  0.3689988       8.690109    
  0.3699988       8.690839    
  0.3709988       8.691568    
  0.3719988       8.692297    
  0.3729987       8.693027    
  0.3739987       8.693758    
  0.3749987       8.694489    
  0.3759987       8.695219    
  0.3769987       8.695949    
  0.3779987       8.696680    
  0.3789987       8.697411    
  0.3799987       8.698143    
  0.3809986       8.698875    
  0.3819986       8.699606    
  0.3829986       8.700338    
  0.3839986       8.701070    
  0.3849986       8.701803    
  0.3859986       8.702536    
  0.3869986       8.703270    
  0.3879986       8.704004    
  0.3889985       8.704738    
  0.3899985       8.705472    
  0.3909985       8.706205    
  0.3919985       8.706938    
  0.3929985       8.707672    
  0.3939985       8.708406    
  0.3949985       8.709141    
  0.3959984       8.709876    
  0.3969984       8.710611    
  0.3979984       8.711347    
  0.3989984       8.712083    
  0.3999984       8.712819    
  0.4009984       8.713555    
  0.4019984       8.714291    
  0.4029984       8.715027    
  0.4039983       8.715764    
  0.4049983       8.716501    
  0.4059983       8.717238    
  0.4069983       8.717976    
  0.4079983       8.718713    
  0.4089983       8.719451    
  0.4099983       8.720189    
  0.4109983       8.720927    
  0.4119982       8.721665    
  0.4129982       8.722404    
  0.4139982       8.723144    
  0.4149982       8.723883    
  0.4159982       8.724623    
  0.4169982       8.725363    
  0.4179982       8.726103    
  0.4189982       8.726843    
  0.4199981       8.727583    
  0.4209981       8.728324    
  0.4219981       8.729065    
  0.4229981       8.729806    
  0.4239981       8.730547    
  0.4249981       8.731288    
  0.4259981       8.732029    
  0.4269980       8.732771    
  0.4279980       8.733513    
  0.4289980       8.734255    
  0.4299980       8.734997    
  0.4309980       8.735739    
  0.4319980       8.736482    
  0.4329980       8.737225    
  0.4339980       8.737968    
  0.4349979       8.738711    
  0.4359979       8.739454    
  0.4369979       8.740198    
  0.4379979       8.740942    
  0.4389979       8.741686    
  0.4399979       8.742431    
  0.4409979       8.743176    
  0.4419979       8.743921    
  0.4429978       8.744666    
  0.4439978       8.745412    
  0.4449978       8.746158    
  0.4459978       8.746903    
  0.4469978       8.747649    
  0.4479978       8.748395    
  0.4489978       8.749141    
  0.4499978       8.749888    
  0.4509977       8.750634    
  0.4519977       8.751381    
  0.4529977       8.752128    
  0.4539977       8.752875    
  0.4549977       8.753623    
  0.4559977       8.754371    
  0.4569977       8.755119    
  0.4579976       8.755867    
  0.4589976       8.756615    
  0.4599976       8.757364    
  0.4609976       8.758112    
  0.4619976       8.758860    
  0.4629976       8.759609    
  0.4639976       8.760358    
  0.4649976       8.761108    
  0.4659975       8.761858    
  0.4669975       8.762608    
  0.4679975       8.763358    
  0.4689975       8.764109    
  0.4699975       8.764859    
  0.4709975       8.765610    
  0.4719975       8.766361    
  0.4729975       8.767112    
  0.4739974       8.767863    
  0.4749974       8.768615    
  0.4759974       8.769366    
  0.4769974       8.770118    
  0.4779974       8.770870    
  0.4789974       8.771622    
  0.4799974       8.772374    
  0.4809974       8.773127    
  0.4819973       8.773879    
  0.4829973       8.774632    
  0.4839973       8.775386    
  0.4849973       8.776139    
  0.4859973       8.776893    
  0.4869973       8.777646    
  0.4879973       8.778400    
  0.4889973       8.779155    
  0.4899972       8.779909    
  0.4909972       8.780664    
  0.4919972       8.781418    
  0.4929972       8.782173    
  0.4939972       8.782928    
  0.4949972       8.783683    
  0.4959972       8.784438    
  0.4969971       8.785194    
  0.4979971       8.785950    
  0.4989971       8.786707    
  0.4999971       8.787464    
  0.5009971       8.788220    
  0.5019971       8.788977    
  0.5029971       8.789734    
  0.5039971       8.790492    
  0.5049971       8.791249    
  0.5059971       8.792007    
  0.5069970       8.792765    
  0.5079970       8.793523    
  0.5089970       8.794281    
  0.5099970       8.795039    
  0.5109970       8.795797    
  0.5119970       8.796555    
  0.5129970       8.797314    
  0.5139970       8.798073    
  0.5149969       8.798832    
  0.5159969       8.799592    
  0.5169969       8.800351    
  0.5179969       8.801111    
  0.5189969       8.801871    
  0.5199969       8.802631    
  0.5209969       8.803392    
  0.5219969       8.804152    
  0.5229968       8.804913    
  0.5239968       8.805674    
  0.5249968       8.806435    
  0.5259968       8.807196    
  0.5269968       8.807958    
  0.5279968       8.808719    
  0.5289968       8.809481    
  0.5299968       8.810243    
  0.5309967       8.811005    
  0.5319967       8.811767    
  0.5329967       8.812530    
  0.5339967       8.813293    
  0.5349967       8.814056    
  0.5359967       8.814819    
  0.5369967       8.815582    
  0.5379966       8.816345    
  0.5389966       8.817109    
  0.5399966       8.817873    
  0.5409966       8.818637    
  0.5419966       8.819401    
  0.5429966       8.820165    
  0.5439966       8.820930    
  0.5449966       8.821695    
  0.5459965       8.822460    
  0.5469965       8.823225    
  0.5479965       8.823990    
  0.5489965       8.824755    
  0.5499965       8.825520    
  0.5509965       8.826286    
  0.5519965       8.827052    
  0.5529965       8.827818    
  0.5539964       8.828584    
  0.5549964       8.829351    
  0.5559964       8.830118    
  0.5569964       8.830885    
  0.5579964       8.831652    
  0.5589964       8.832419    
  0.5599964       8.833186    
  0.5609964       8.833954    
  0.5619963       8.834721    
  0.5629963       8.835489    
  0.5639963       8.836257    
  0.5649963       8.837026    
  0.5659963       8.837795    
  0.5669963       8.838564    
  0.5679963       8.839333    
  0.5689963       8.840102    
  0.5699962       8.840871    
  0.5709962       8.841640    
  0.5719962       8.842409    
  0.5729962       8.843179    
  0.5739962       8.843949    
  0.5749962       8.844719    
  0.5759962       8.845490    
  0.5769961       8.846261    
  0.5779961       8.847032    
  0.5789961       8.847803    
  0.5799961       8.848574    
  0.5809961       8.849345    
  0.5819961       8.850116    
  0.5829961       8.850888    
  0.5839961       8.851659    
  0.5849960       8.852431    
  0.5859960       8.853203    
  0.5869960       8.853975    
  0.5879960       8.854747    
  0.5889960       8.855519    
  0.5899960       8.856292    
  0.5909960       8.857065    
  0.5919960       8.857838    
  0.5929959       8.858611    
  0.5939959       8.859384    
  0.5949959       8.860158    
  0.5959959       8.860932    
  0.5969959       8.861706    
  0.5979959       8.862480    
  0.5989959       8.863254    
  0.5999959       8.864028    
  0.6009958       8.864803    
  0.6019958       8.865578    
  0.6029958       8.866353    
  0.6039958       8.867128    
  0.6049958       8.867903    
  0.6059958       8.868678    
  0.6069958       8.869453    
  0.6079957       8.870229    
  0.6089957       8.871005    
  0.6099957       8.871782    
  0.6109957       8.872558    
  0.6119957       8.873334    
  0.6129957       8.874111    
  0.6139957       8.874888    
  0.6149957       8.875665    
  0.6159956       8.876442    
  0.6169956       8.877219    
  0.6179956       8.877996    
  0.6189956       8.878774    
  0.6199956       8.879552    
  0.6209956       8.880330    
  0.6219956       8.881108    
  0.6229956       8.881887    
  0.6239955       8.882666    
  0.6249955       8.883444    
  0.6259955       8.884223    
  0.6269955       8.885002    
  0.6279955       8.885781    
  0.6289955       8.886560    
  0.6299955       8.887340    
  0.6309955       8.888120    
  0.6319954       8.888900    
  0.6329954       8.889680    
  0.6339954       8.890460    
  0.6349954       8.891240    
  0.6359954       8.892020    
  0.6369954       8.892801    
  0.6379954       8.893581    
  0.6389953       8.894362    
  0.6399953       8.895143    
  0.6409953       8.895924    
  0.6419953       8.896706    
  0.6429953       8.897487    
  0.6439953       8.898269    
  0.6449953       8.899051    
  0.6459953       8.899833    
  0.6469952       8.900615    
  0.6479952       8.901398    
  0.6489952       8.902180    
  0.6499952       8.902963    
  0.6509952       8.903746    
  0.6519952       8.904529    
  0.6529952       8.905313    
  0.6539952       8.906096    
  0.6549951       8.906880    
  0.6559951       8.907663    
  0.6569951       8.908447    
  0.6579951       8.909231    
  0.6589951       8.910015    
  0.6599951       8.910800    
  0.6609951       8.911584    
  0.6619951       8.912369    
  0.6629950       8.913154    
  0.6639950       8.913939    
  0.6649950       8.914724    
  0.6659950       8.915509    
  0.6669950       8.916294    
  0.6679950       8.917080    
  0.6689950       8.917866    
  0.6699950       8.918652    
  0.6709949       8.919438    
  0.6719949       8.920225    
  0.6729949       8.921011    
  0.6739949       8.921797    
  0.6749949       8.922584    
  0.6759949       8.923370    
  0.6769949       8.924157    
  0.6779948       8.924944    
  0.6789948       8.925732    
  0.6799948       8.926519    
  0.6809948       8.927307    
  0.6819948       8.928095    
  0.6829948       8.928883    
  0.6839948       8.929671    
  0.6849948       8.930460    
  0.6859947       8.931249    
  0.6869947       8.932038    
  0.6879947       8.932826    
  0.6889947       8.933615    
  0.6899947       8.934404    
  0.6909947       8.935194    
  0.6919947       8.935983    
  0.6929947       8.936772    
  0.6939946       8.937562    
  0.6949946       8.938352    
  0.6959946       8.939142    
  0.6969946       8.939931    
  0.6979946       8.940721    
  0.6989946       8.941511    
  0.6999946       8.942302    
  0.7009946       8.943093    
  0.7019945       8.943884    
  0.7029945       8.944675    
  0.7039945       8.945466    
  0.7049945       8.946257    
  0.7059945       8.947049    
  0.7069945       8.947841    
  0.7079945       8.948634    
  0.7089944       8.949425    
  0.7099944       8.950217    
  0.7109944       8.951009    
  0.7119944       8.951802    
  0.7129944       8.952595    
  0.7139944       8.953388    
  0.7149944       8.954181    
  0.7159944       8.954974    
  0.7169943       8.955767    
  0.7179943       8.956561    
  0.7189943       8.957354    
  0.7199943       8.958147    
  0.7209943       8.958941    
  0.7219943       8.959735    
  0.7229943       8.960529    
  0.7239943       8.961323    
  0.7249942       8.962117    
  0.7259942       8.962912    
  0.7269942       8.963707    
  0.7279942       8.964502    
  0.7289942       8.965297    
  0.7299942       8.966092    
  0.7309942       8.966887    
  0.7319942       8.967683    
  0.7329941       8.968479    
  0.7339941       8.969275    
  0.7349941       8.970071    
  0.7359941       8.970867    
  0.7369941       8.971663    
  0.7379941       8.972460    
  0.7389941       8.973257    
  0.7399940       8.974054    
  0.7409940       8.974851    
  0.7419940       8.975648    
  0.7429940       8.976445    
  0.7439940       8.977242    
  0.7449940       8.978039    
  0.7459940       8.978836    
  0.7469940       8.979633    
  0.7479939       8.980431    
  0.7489939       8.981229    
  0.7499939       8.982027    
  0.7509939       8.982825    
  0.7519939       8.983623    
  0.7529939       8.984422    
  0.7539939       8.985221    
  0.7549939       8.986020    
  0.7559938       8.986819    
  0.7569938       8.987618    
  0.7579938       8.988417    
  0.7589938       8.989216    
  0.7599938       8.990016    
  0.7609938       8.990815    
  0.7619938       8.991616    
  0.7629938       8.992416    
  0.7639937       8.993216    
  0.7649937       8.994016    
  0.7659937       8.994816    
  0.7669937       8.995617    
  0.7679937       8.996418    
  0.7689937       8.997219    
  0.7699937       8.998020    
  0.7709936       8.998821    
  0.7719936       8.999622    
  0.7729936       9.000424    
  0.7739936       9.001225    
  0.7749936       9.002027    
  0.7759936       9.002829    
  0.7769936       9.003631    
  0.7779936       9.004433    
  0.7789935       9.005235    
  0.7799935       9.006038    
  0.7809935       9.006841    
  0.7819935       9.007644    
  0.7829935       9.008447    
  0.7839935       9.009250    
  0.7849935       9.010053    
  0.7859935       9.010856    
  0.7869934       9.011659    
  0.7879934       9.012462    
  0.7889934       9.013266    
  0.7899934       9.014070    
  0.7909934       9.014874    
  0.7919934       9.015678    
  0.7929934       9.016483    
  0.7939934       9.017288    
  0.7949933       9.018092    
  0.7959933       9.018896    
  0.7969933       9.019701    
  0.7979933       9.020506    
  0.7989933       9.021311    
  0.7999933       9.022116    
  0.8009933       9.022922    
  0.8019933       9.023727    
  0.8029932       9.024533    
  0.8039932       9.025339    
  0.8049932       9.026145    
  0.8059932       9.026951    
  0.8069932       9.027758    
  0.8079932       9.028564    
  0.8089932       9.029371    
  0.8099931       9.030178    
  0.8109931       9.030985    
  0.8119931       9.031792    
  0.8129931       9.032599    
  0.8139931       9.033406    
  0.8149931       9.034214    
  0.8159931       9.035021    
  0.8169931       9.035829    
  0.8179930       9.036637    
  0.8189930       9.037445    
  0.8199930       9.038253    
  0.8209930       9.039061    
  0.8219930       9.039869    
  0.8229930       9.040678    
  0.8239930       9.041487    
  0.8249930       9.042296    
  0.8259929       9.043105    
  0.8269929       9.043914    
  0.8279929       9.044723    
  0.8289929       9.045532    
  0.8299929       9.046342    
  0.8309929       9.047151    
  0.8319929       9.047960    
  0.8329929       9.048770    
  0.8339928       9.049580    
  0.8349928       9.050390    
  0.8359928       9.051200    
  0.8369928       9.052010    
  0.8379928       9.052820    
  0.8389928       9.053631    
  0.8399928       9.054442    
  0.8409927       9.055253    
  0.8419927       9.056064    
  0.8429927       9.056875    
  0.8439927       9.057686    
  0.8449927       9.058498    
  0.8459927       9.059310    
  0.8469927       9.060122    
  0.8479927       9.060934    
  0.8489926       9.061746    
  0.8499926       9.062558    
  0.8509926       9.063371    
  0.8519926       9.064183    
  0.8529926       9.064996    
  0.8539926       9.065808    
  0.8549926       9.066621    
  0.8559926       9.067434    
  0.8569925       9.068247    
  0.8579925       9.069060    
  0.8589925       9.069873    
  0.8599925       9.070686    
  0.8609925       9.071500    
  0.8619925       9.072314    
  0.8629925       9.073128    
  0.8639925       9.073942    
  0.8649924       9.074756    
  0.8659924       9.075570    
  0.8669924       9.076384    
  0.8679924       9.077199    
  0.8689924       9.078014    
  0.8699924       9.078829    
  0.8709924       9.079644    
  0.8719923       9.080459    
  0.8729923       9.081274    
  0.8739923       9.082090    
  0.8749923       9.082905    
  0.8759923       9.083721    
  0.8769923       9.084537    
  0.8779923       9.085353    
  0.8789923       9.086169    
  0.8799922       9.086985    
  0.8809922       9.087801    
  0.8819922       9.088617    
  0.8829922       9.089433    
  0.8839922       9.090250    
  0.8849922       9.091067    
  0.8859922       9.091884    
  0.8869922       9.092701    
  0.8879921       9.093518    
  0.8889921       9.094335    
  0.8899921       9.095153    
  0.8909921       9.095971    
  0.8919921       9.096788    
  0.8929921       9.097606    
  0.8939921       9.098424    
  0.8949921       9.099242    
  0.8959920       9.100060    
  0.8969920       9.100878    
  0.8979920       9.101696    
  0.8989920       9.102515    
  0.8999920       9.103334    
  0.9009920       9.104153    
  0.9019920       9.104972    
  0.9029920       9.105791    
  0.9039919       9.106610    
  0.9049919       9.107429    
  0.9059919       9.108248    
  0.9069919       9.109068    
  0.9079919       9.109888    
  0.9089919       9.110708    
  0.9099919       9.111528    
  0.9109918       9.112348    
  0.9119918       9.113168    
  0.9129918       9.113988    
  0.9139918       9.114808    
  0.9149918       9.115629    
  0.9159918       9.116450    
  0.9169918       9.117271    
  0.9179918       9.118092    
  0.9189917       9.118913    
  0.9199917       9.119734    
  0.9209917       9.120555    
  0.9219917       9.121377    
  0.9229917       9.122199    
  0.9239917       9.123020    
  0.9249917       9.123842    
  0.9259917       9.124664    
  0.9269916       9.125486    
  0.9279916       9.126308    
  0.9289916       9.127131    
  0.9299916       9.127953    
  0.9309916       9.128776    
  0.9319916       9.129599    
  0.9329916       9.130411    
  0.9339916       9.131119    
  0.9349915       9.131721    
  0.9359915       9.132223    
  0.9369915       9.132632    
  0.9379915       9.132955    
  0.9389915       9.133197    
  0.9399915       9.133363    
  0.9409915       9.133459    
  0.9419914       9.133490    
  0.9429914       9.133460    
  0.9439914       9.133373    
  0.9449914       9.133232    
  0.9459914       9.133041    
  0.9469914       9.132804    
  0.9479914       9.132524    
  0.9489914       9.132203    
  0.9499913       9.131845    
  0.9509913       9.131451    
  0.9519913       9.131025    
  0.9529913       9.130568    
  0.9539913       9.130083    
  0.9549913       9.129572    
  0.9559913       9.129036    
  0.9569913       9.128476    
  0.9579912       9.127895    
  0.9589912       9.127294    
  0.9599912       9.126673    
  0.9609912       9.126035    
  0.9619912       9.125380    
  0.9629912       9.124710    
  0.9639912       9.124026    
  0.9649912       9.123328    